
     Program BANDS v.6.1 (svn rev. 13369) starts on  7Apr2022 at 14:40:39 

     This program is part of the open-source Quantum ESPRESSO suite
     for quantum simulation of materials; please cite
         "P. Giannozzi et al., J. Phys.:Condens. Matter 21 395502 (2009);
          URL http://www.quantum-espresso.org", 
     in publications or presentations arising from this work. More details at
     http://www.quantum-espresso.org/quote

     Parallel version (MPI), running on    48 processors
     R & G space division:  proc/nbgrp/npool/nimage =      48

     Reading data from directory:
     /share/inl/marcel/TB-SO/GaSegamma_outdir/GaSegamma.save

   Info: using nr1, nr2, nr3 values from input

   Info: using nr1, nr2, nr3 values from input

     IMPORTANT: XC functional enforced from input :
     Exchange-correlation      = SLA+PW+PSX+PSC ( 1  4 10  8 0 0)
     Any further DFT definition will be discarded
     Please, verify this is what you really want

 
     Parallelization info
     --------------------
     sticks:   dense  smooth     PW     G-vecs:    dense   smooth      PW
     Min          43      43     12                10095    10095    1446
     Max          44      44     13                10128    10128    1466
     Sum        2083    2083    583               484939   484939   69957
 
     high-symmetry point:  0.0000 0.0000 0.0796   x coordinate   0.0000
     high-symmetry point:  0.0000 0.5774 0.0796   x coordinate   0.5774
     high-symmetry point:  0.3333 0.5773 0.0796   x coordinate   0.9107
     high-symmetry point:  0.0000 0.0000 0.0796   x coordinate   1.5773
     high-symmetry point:  0.0000 0.0000 0.0000   x coordinate   1.6569
     high-symmetry point:  0.0000 0.5774-0.0000   x coordinate   2.2343
     high-symmetry point:  0.3333 0.5773-0.0000   x coordinate   2.5676
     high-symmetry point:  0.0000 0.0000 0.0000   x coordinate   3.2343
     high-symmetry point:  0.0000 0.5774 0.0796   x coordinate   3.2343
     high-symmetry point:  0.0000 0.5774-0.0000   x coordinate   3.3139
     high-symmetry point:  0.3333 0.5773 0.0796   x coordinate   3.3139
     high-symmetry point:  0.3333 0.5773-0.0000   x coordinate   3.3935

     Plottable bands (eV) written to file GaSegamma.bands.dat.gnu
     Bands written to file GaSegamma.bands.dat
