
     Program PWSCF v.6.1 (svn rev. 13369) starts on  7Apr2022 at 14: 6:36 

     This program is part of the open-source Quantum ESPRESSO suite
     for quantum simulation of materials; please cite
         "P. Giannozzi et al., J. Phys.:Condens. Matter 21 395502 (2009);
          URL http://www.quantum-espresso.org", 
     in publications or presentations arising from this work. More details at
     http://www.quantum-espresso.org/quote

     Parallel version (MPI), running on    48 processors
     R & G space division:  proc/nbgrp/npool/nimage =      48
     Reading input from GaSegamma_band.in
Warning: card &IONS ignored
Warning: card / ignored
Warning: card &CELL ignored
Warning: card     CELL_DOFREE='ALL' ignored
Warning: card / ignored

     Current dimensions of program PWSCF are:
     Max number of different atomic species (ntypx) = 10
     Max number of k-points (npk) =  40000
     Max angular momentum in pseudopotentials (lmaxx) =  3

     Atomic positions and unit cell read from directory:
     /share/inl/marcel/TB-SO/GaSegamma_outdir/GaSegamma.save/
 

     IMPORTANT: XC functional enforced from input :
     Exchange-correlation      = SLA+PW+PSX+PSC ( 1  4 10  8 0 0)
     Any further DFT definition will be discarded
     Please, verify this is what you really want


     Subspace diagonalization in iterative solution of the eigenvalue problem:
     one sub-group per band group will be used
     scalapack distributed-memory algorithm (size of sub-group:  4*  4 procs)

 
     Parallelization info
     --------------------
     sticks:   dense  smooth     PW     G-vecs:    dense   smooth      PW
     Min          43      43     12                10095    10095    1446
     Max          44      44     13                10128    10128    1466
     Sum        2083    2083    583               484939   484939   69957
 


     bravais-lattice index     =            0
     lattice parameter (alat)  =       7.1089  a.u.
     unit-cell volume          =    1954.1947 (a.u.)^3
     number of atoms/cell      =           12
     number of atomic types    =            2
     number of electrons       =       114.00
     number of Kohn-Sham states=          120
     kinetic-energy cutoff     =     150.0000  Ry
     charge density cutoff     =     600.0000  Ry
     Exchange-correlation      = SLA+PW+PSX+PSC ( 1  4 10  8 0 0)
     Non magnetic calculation with spin-orbit


     celldm(1)=   7.108941  celldm(2)=   0.000000  celldm(3)=   0.000000
     celldm(4)=   0.000000  celldm(5)=   0.000000  celldm(6)=   0.000000

     crystal axes: (cart. coord. in units of alat)
               a(1) = (   1.000000   0.000000   0.000000 )  
               a(2) = (  -0.500000   0.866025   0.000000 )  
               a(3) = (   0.000000   0.000000   6.280909 )  

     reciprocal axes: (cart. coord. in units 2 pi/alat)
               b(1) = (  1.000000  0.577350 -0.000000 )  
               b(2) = (  0.000000  1.154701 -0.000000 )  
               b(3) = (  0.000000  0.000000  0.159213 )  


     PseudoPot. # 1 for Ga read from file:
     /home/mclaro/pseudo/ONCVPSP/sg15/Ga_ONCV_PBE_fr.upf
     MD5 check sum: 291fdaf421ec3a7833e0cf5917f67014
     Pseudo is Norm-conserving, Zval = 13.0
     Generated using ONCVPSP code by D. R. Hamann
     Using radial grid of 1926 points, 10 beta functions with: 
                l(1) =   0
                l(2) =   0
                l(3) =   1
                l(4) =   1
                l(5) =   1
                l(6) =   1
                l(7) =   2
                l(8) =   2
                l(9) =   2
               l(10) =   2

     PseudoPot. # 2 for Se read from file:
     /home/mclaro/pseudo/ONCVPSP/sg15/Se_ONCV_PBE_fr.upf
     MD5 check sum: cfe1483cd39788255e734f67871220b5
     Pseudo is Norm-conserving, Zval =  6.0
     Generated using ONCVPSP code by D. R. Hamann
     Using radial grid of 1214 points, 10 beta functions with: 
                l(1) =   0
                l(2) =   0
                l(3) =   1
                l(4) =   1
                l(5) =   1
                l(6) =   1
                l(7) =   2
                l(8) =   2
                l(9) =   2
               l(10) =   2

     atomic species   valence    mass     pseudopotential
        Ga            13.00    69.72300     Ga( 1.00)
        Se             6.00    78.96000     Se( 1.00)

      6 Sym. Ops. (no inversion) found


                                    s                        frac. trans.

      isym =  1     identity                                     

 cryst.   s( 1) = (     1          0          0      )
                  (     0          1          0      )
                  (     0          0          1      )

 cart.    s( 1) = (  1.0000000  0.0000000 -0.0000000 )
                  (  0.0000000  1.0000000  0.0000000 )
                  (  0.0000000  0.0000000  1.0000000 )


      isym =  2     120 deg rotation - cryst. axis [0,0,1]       

 cryst.   s( 2) = (     0          1          0      )
                  (    -1         -1          0      )
                  (     0          0          1      )

 cart.    s( 2) = ( -0.5000000 -0.8660254  0.0000000 )
                  (  0.8660254 -0.5000000  0.0000000 )
                  (  0.0000000  0.0000000  1.0000000 )


      isym =  3     120 deg rotation - cryst. axis [0,0,-1]      

 cryst.   s( 3) = (    -1         -1          0      )
                  (     1          0          0      )
                  (     0          0          1      )

 cart.    s( 3) = ( -0.5000000  0.8660254  0.0000000 )
                  ( -0.8660254 -0.5000000  0.0000000 )
                  (  0.0000000  0.0000000  1.0000000 )


      isym =  4     inv. 180 deg rotation - cart. axis [1,0,0]   

 cryst.   s( 4) = (    -1          0          0      )
                  (     1          1          0      )
                  (     0          0          1      )

 cart.    s( 4) = ( -1.0000000 -0.0000000  0.0000000 )
                  (  0.0000000  1.0000000  0.0000000 )
                  (  0.0000000  0.0000000  1.0000000 )


      isym =  5     inv. 180 deg rotation - cryst. axis [0,1,0]  

 cryst.   s( 5) = (     1          1          0      )
                  (     0         -1          0      )
                  (     0          0          1      )

 cart.    s( 5) = (  0.5000000  0.8660254 -0.0000000 )
                  (  0.8660254 -0.5000000  0.0000000 )
                  (  0.0000000  0.0000000  1.0000000 )


      isym =  6     inv. 180 deg rotation - cryst. axis [1,1,0]  

 cryst.   s( 6) = (     0         -1          0      )
                  (    -1          0          0      )
                  (     0          0          1      )

 cart.    s( 6) = (  0.5000000 -0.8660254  0.0000000 )
                  ( -0.8660254 -0.5000000  0.0000000 )
                  (  0.0000000  0.0000000  1.0000000 )


   Cartesian axes

     site n.     atom                  positions (alat units)
         1           Se  tau(   1) = (   0.0000000   0.0000000   1.4775656  )
         2           Se  tau(   2) = (  -0.0000000   0.5773503   0.6141142  )
         3           Se  tau(   3) = (   0.5000000   0.2886751   3.5710424  )
         4           Se  tau(   4) = (   0.0000000   0.0000000   2.7079017  )
         5           Se  tau(   5) = (  -0.0000000   0.5773503   5.6647571  )
         6           Se  tau(   6) = (   0.5000000   0.2886751   4.8014162  )
         7           Ga  tau(   7) = (   0.5000000   0.2886751   1.7799971  )
         8           Ga  tau(   8) = (   0.0000000   0.0000000   0.3114708  )
         9           Ga  tau(   9) = (  -0.0000000   0.5773503   3.8734441  )
        10           Ga  tau(  10) = (   0.5000000   0.2886751   2.4052795  )
        11           Ga  tau(  11) = (   0.0000000   0.0000000   5.9671470  )
        12           Ga  tau(  12) = (  -0.0000000   0.5773503   4.4987545  )

   Crystallographic axes

     site n.     atom                  positions (cryst. coord.)
         1           Se  tau(   1) = (  0.0000000  0.0000000  0.2352471  )
         2           Se  tau(   2) = (  0.3333333  0.6666667  0.0977747  )
         3           Se  tau(   3) = (  0.6666667  0.3333333  0.5685551  )
         4           Se  tau(   4) = ( -0.0000000 -0.0000000  0.4311322  )
         5           Se  tau(   5) = (  0.3333333  0.6666667  0.9019009  )
         6           Se  tau(   6) = (  0.6666667  0.3333333  0.7644461  )
         7           Ga  tau(   7) = (  0.6666667  0.3333333  0.2833980  )
         8           Ga  tau(   8) = ( -0.0000000 -0.0000000  0.0495901  )
         9           Ga  tau(   9) = (  0.3333333  0.6666667  0.6167012  )
        10           Ga  tau(  10) = (  0.6666667  0.3333333  0.3829509  )
        11           Ga  tau(  11) = ( -0.0000000 -0.0000000  0.9500452  )
        12           Ga  tau(  12) = (  0.3333333  0.6666667  0.7162585  )

     number of k points=   160
                       cart. coord. in units 2pi/alat
        k(    1) = (   0.0000000   0.0000000   0.0796063), wk =   0.0062500
        k(    2) = (   0.0000000   0.0213833   0.0796063), wk =   0.0062500
        k(    3) = (   0.0000000   0.0427667   0.0796063), wk =   0.0062500
        k(    4) = (   0.0000000   0.0641500   0.0796063), wk =   0.0062500
        k(    5) = (   0.0000000   0.0855334   0.0796063), wk =   0.0062500
        k(    6) = (   0.0000000   0.1069167   0.0796063), wk =   0.0062500
        k(    7) = (   0.0000000   0.1283001   0.0796063), wk =   0.0062500
        k(    8) = (   0.0000000   0.1496834   0.0796063), wk =   0.0062500
        k(    9) = (   0.0000000   0.1710667   0.0796063), wk =   0.0062500
        k(   10) = (   0.0000000   0.1924501   0.0796063), wk =   0.0062500
        k(   11) = (   0.0000000   0.2138334   0.0796063), wk =   0.0062500
        k(   12) = (   0.0000000   0.2352168   0.0796063), wk =   0.0062500
        k(   13) = (   0.0000000   0.2566001   0.0796063), wk =   0.0062500
        k(   14) = (   0.0000000   0.2779835   0.0796063), wk =   0.0062500
        k(   15) = (   0.0000000   0.2993668   0.0796063), wk =   0.0062500
        k(   16) = (   0.0000000   0.3207501   0.0796063), wk =   0.0062500
        k(   17) = (   0.0000000   0.3421335   0.0796063), wk =   0.0062500
        k(   18) = (   0.0000000   0.3635168   0.0796063), wk =   0.0062500
        k(   19) = (   0.0000000   0.3849002   0.0796063), wk =   0.0062500
        k(   20) = (   0.0000000   0.4062835   0.0796063), wk =   0.0062500
        k(   21) = (   0.0000000   0.4276669   0.0796063), wk =   0.0062500
        k(   22) = (   0.0000000   0.4490502   0.0796063), wk =   0.0062500
        k(   23) = (   0.0000000   0.4704336   0.0796063), wk =   0.0062500
        k(   24) = (   0.0000000   0.4918169   0.0796063), wk =   0.0062500
        k(   25) = (   0.0000000   0.5132002   0.0796063), wk =   0.0062500
        k(   26) = (   0.0000000   0.5345836   0.0796063), wk =   0.0062500
        k(   27) = (   0.0000000   0.5559669   0.0796063), wk =   0.0062500
        k(   28) = (   0.0000000   0.5773503   0.0796063), wk =   0.0062500
        k(   29) = (   0.0222220   0.5773499   0.0796063), wk =   0.0062500
        k(   30) = (   0.0444440   0.5773495   0.0796063), wk =   0.0062500
        k(   31) = (   0.0666660   0.5773491   0.0796063), wk =   0.0062500
        k(   32) = (   0.0888880   0.5773487   0.0796063), wk =   0.0062500
        k(   33) = (   0.1111100   0.5773483   0.0796063), wk =   0.0062500
        k(   34) = (   0.1333320   0.5773480   0.0796063), wk =   0.0062500
        k(   35) = (   0.1555540   0.5773476   0.0796063), wk =   0.0062500
        k(   36) = (   0.1777760   0.5773472   0.0796063), wk =   0.0062500
        k(   37) = (   0.1999980   0.5773468   0.0796063), wk =   0.0062500
        k(   38) = (   0.2222200   0.5773464   0.0796063), wk =   0.0062500
        k(   39) = (   0.2444420   0.5773460   0.0796063), wk =   0.0062500
        k(   40) = (   0.2666640   0.5773457   0.0796063), wk =   0.0062500
        k(   41) = (   0.2888860   0.5773453   0.0796063), wk =   0.0062500
        k(   42) = (   0.3111080   0.5773449   0.0796063), wk =   0.0062500
        k(   43) = (   0.3333300   0.5773445   0.0796063), wk =   0.0062500
        k(   44) = (   0.3225774   0.5587205   0.0796063), wk =   0.0062500
        k(   45) = (   0.3118248   0.5400965   0.0796063), wk =   0.0062500
        k(   46) = (   0.3010723   0.5214724   0.0796063), wk =   0.0062500
        k(   47) = (   0.2903197   0.5028484   0.0796063), wk =   0.0062500
        k(   48) = (   0.2795671   0.4842244   0.0796063), wk =   0.0062500
        k(   49) = (   0.2688145   0.4656004   0.0796063), wk =   0.0062500
        k(   50) = (   0.2580619   0.4469764   0.0796063), wk =   0.0062500
        k(   51) = (   0.2473094   0.4283524   0.0796063), wk =   0.0062500
        k(   52) = (   0.2365568   0.4097284   0.0796063), wk =   0.0062500
        k(   53) = (   0.2258042   0.3911043   0.0796063), wk =   0.0062500
        k(   54) = (   0.2150516   0.3724803   0.0796063), wk =   0.0062500
        k(   55) = (   0.2042990   0.3538563   0.0796063), wk =   0.0062500
        k(   56) = (   0.1935465   0.3352323   0.0796063), wk =   0.0062500
        k(   57) = (   0.1827939   0.3166083   0.0796063), wk =   0.0062500
        k(   58) = (   0.1720413   0.2979843   0.0796063), wk =   0.0062500
        k(   59) = (   0.1612887   0.2793602   0.0796063), wk =   0.0062500
        k(   60) = (   0.1505361   0.2607362   0.0796063), wk =   0.0062500
        k(   61) = (   0.1397835   0.2421122   0.0796063), wk =   0.0062500
        k(   62) = (   0.1290310   0.2234882   0.0796063), wk =   0.0062500
        k(   63) = (   0.1182784   0.2048642   0.0796063), wk =   0.0062500
        k(   64) = (   0.1075258   0.1862402   0.0796063), wk =   0.0062500
        k(   65) = (   0.0967732   0.1676161   0.0796063), wk =   0.0062500
        k(   66) = (   0.0860206   0.1489921   0.0796063), wk =   0.0062500
        k(   67) = (   0.0752681   0.1303681   0.0796063), wk =   0.0062500
        k(   68) = (   0.0645155   0.1117441   0.0796063), wk =   0.0062500
        k(   69) = (   0.0537629   0.0931201   0.0796063), wk =   0.0062500
        k(   70) = (   0.0430103   0.0744961   0.0796063), wk =   0.0062500
        k(   71) = (   0.0322577   0.0558720   0.0796063), wk =   0.0062500
        k(   72) = (   0.0215052   0.0372480   0.0796063), wk =   0.0062500
        k(   73) = (   0.0107526   0.0186240   0.0796063), wk =   0.0062500
        k(   74) = (   0.0000000   0.0000000   0.0796063), wk =   0.0062500
        k(   75) = (   0.0000000   0.0000000   0.0530709), wk =   0.0062500
        k(   76) = (   0.0000000   0.0000000   0.0265354), wk =   0.0062500
        k(   77) = (   0.0000000   0.0000000   0.0000000), wk =   0.0062500
        k(   78) = (   0.0000000   0.0213833  -0.0000000), wk =   0.0062500
        k(   79) = (   0.0000000   0.0427667  -0.0000000), wk =   0.0062500
        k(   80) = (   0.0000000   0.0641500  -0.0000000), wk =   0.0062500
        k(   81) = (   0.0000000   0.0855334  -0.0000000), wk =   0.0062500
        k(   82) = (   0.0000000   0.1069167  -0.0000000), wk =   0.0062500
        k(   83) = (   0.0000000   0.1283001  -0.0000000), wk =   0.0062500
        k(   84) = (   0.0000000   0.1496834  -0.0000000), wk =   0.0062500
        k(   85) = (   0.0000000   0.1710667  -0.0000000), wk =   0.0062500
        k(   86) = (   0.0000000   0.1924501  -0.0000000), wk =   0.0062500
        k(   87) = (   0.0000000   0.2138334  -0.0000000), wk =   0.0062500
        k(   88) = (   0.0000000   0.2352168  -0.0000000), wk =   0.0062500
        k(   89) = (   0.0000000   0.2566001  -0.0000000), wk =   0.0062500
        k(   90) = (   0.0000000   0.2779835  -0.0000000), wk =   0.0062500
        k(   91) = (   0.0000000   0.2993668  -0.0000000), wk =   0.0062500
        k(   92) = (   0.0000000   0.3207501  -0.0000000), wk =   0.0062500
        k(   93) = (   0.0000000   0.3421335  -0.0000000), wk =   0.0062500
        k(   94) = (   0.0000000   0.3635168  -0.0000000), wk =   0.0062500
        k(   95) = (   0.0000000   0.3849002  -0.0000000), wk =   0.0062500
        k(   96) = (   0.0000000   0.4062835  -0.0000000), wk =   0.0062500
        k(   97) = (   0.0000000   0.4276669  -0.0000000), wk =   0.0062500
        k(   98) = (   0.0000000   0.4490502  -0.0000000), wk =   0.0062500
        k(   99) = (   0.0000000   0.4704336  -0.0000000), wk =   0.0062500
        k(  100) = (   0.0000000   0.4918169  -0.0000000), wk =   0.0062500
        k(  101) = (   0.0000000   0.5132002  -0.0000000), wk =   0.0062500
        k(  102) = (   0.0000000   0.5345836  -0.0000000), wk =   0.0062500
        k(  103) = (   0.0000000   0.5559669  -0.0000000), wk =   0.0062500
        k(  104) = (   0.0000000   0.5773503  -0.0000000), wk =   0.0062500
        k(  105) = (   0.0222220   0.5773499  -0.0000000), wk =   0.0062500
        k(  106) = (   0.0444440   0.5773495  -0.0000000), wk =   0.0062500
        k(  107) = (   0.0666660   0.5773491  -0.0000000), wk =   0.0062500
        k(  108) = (   0.0888880   0.5773487  -0.0000000), wk =   0.0062500
        k(  109) = (   0.1111100   0.5773483  -0.0000000), wk =   0.0062500
        k(  110) = (   0.1333320   0.5773480  -0.0000000), wk =   0.0062500
        k(  111) = (   0.1555540   0.5773476  -0.0000000), wk =   0.0062500
        k(  112) = (   0.1777760   0.5773472  -0.0000000), wk =   0.0062500
        k(  113) = (   0.1999980   0.5773468  -0.0000000), wk =   0.0062500
        k(  114) = (   0.2222200   0.5773464  -0.0000000), wk =   0.0062500
        k(  115) = (   0.2444420   0.5773460  -0.0000000), wk =   0.0062500
        k(  116) = (   0.2666640   0.5773457  -0.0000000), wk =   0.0062500
        k(  117) = (   0.2888860   0.5773453  -0.0000000), wk =   0.0062500
        k(  118) = (   0.3111080   0.5773449  -0.0000000), wk =   0.0062500
        k(  119) = (   0.3333300   0.5773445  -0.0000000), wk =   0.0062500
        k(  120) = (   0.3225774   0.5587205  -0.0000000), wk =   0.0062500
        k(  121) = (   0.3118248   0.5400965  -0.0000000), wk =   0.0062500
        k(  122) = (   0.3010723   0.5214724  -0.0000000), wk =   0.0062500
        k(  123) = (   0.2903197   0.5028484  -0.0000000), wk =   0.0062500
        k(  124) = (   0.2795671   0.4842244  -0.0000000), wk =   0.0062500
        k(  125) = (   0.2688145   0.4656004  -0.0000000), wk =   0.0062500
        k(  126) = (   0.2580619   0.4469764  -0.0000000), wk =   0.0062500
        k(  127) = (   0.2473094   0.4283524  -0.0000000), wk =   0.0062500
        k(  128) = (   0.2365568   0.4097284  -0.0000000), wk =   0.0062500
        k(  129) = (   0.2258042   0.3911043  -0.0000000), wk =   0.0062500
        k(  130) = (   0.2150516   0.3724803  -0.0000000), wk =   0.0062500
        k(  131) = (   0.2042990   0.3538563  -0.0000000), wk =   0.0062500
        k(  132) = (   0.1935465   0.3352323  -0.0000000), wk =   0.0062500
        k(  133) = (   0.1827939   0.3166083  -0.0000000), wk =   0.0062500
        k(  134) = (   0.1720413   0.2979843  -0.0000000), wk =   0.0062500
        k(  135) = (   0.1612887   0.2793602  -0.0000000), wk =   0.0062500
        k(  136) = (   0.1505361   0.2607362  -0.0000000), wk =   0.0062500
        k(  137) = (   0.1397835   0.2421122  -0.0000000), wk =   0.0062500
        k(  138) = (   0.1290310   0.2234882  -0.0000000), wk =   0.0062500
        k(  139) = (   0.1182784   0.2048642  -0.0000000), wk =   0.0062500
        k(  140) = (   0.1075258   0.1862402  -0.0000000), wk =   0.0062500
        k(  141) = (   0.0967732   0.1676161  -0.0000000), wk =   0.0062500
        k(  142) = (   0.0860206   0.1489921  -0.0000000), wk =   0.0062500
        k(  143) = (   0.0752681   0.1303681  -0.0000000), wk =   0.0062500
        k(  144) = (   0.0645155   0.1117441  -0.0000000), wk =   0.0062500
        k(  145) = (   0.0537629   0.0931201  -0.0000000), wk =   0.0062500
        k(  146) = (   0.0430103   0.0744961  -0.0000000), wk =   0.0062500
        k(  147) = (   0.0322577   0.0558720  -0.0000000), wk =   0.0062500
        k(  148) = (   0.0215052   0.0372480  -0.0000000), wk =   0.0062500
        k(  149) = (   0.0107526   0.0186240  -0.0000000), wk =   0.0062500
        k(  150) = (   0.0000000   0.0000000   0.0000000), wk =   0.0062500
        k(  151) = (   0.0000000   0.5773503   0.0796063), wk =   0.0062500
        k(  152) = (   0.0000000   0.5773503   0.0597047), wk =   0.0062500
        k(  153) = (   0.0000000   0.5773503   0.0398032), wk =   0.0062500
        k(  154) = (   0.0000000   0.5773503   0.0199016), wk =   0.0062500
        k(  155) = (   0.0000000   0.5773503  -0.0000000), wk =   0.0062500
        k(  156) = (   0.3333300   0.5773445   0.0796063), wk =   0.0062500
        k(  157) = (   0.3333300   0.5773445   0.0597047), wk =   0.0062500
        k(  158) = (   0.3333300   0.5773445   0.0398032), wk =   0.0062500
        k(  159) = (   0.3333300   0.5773445   0.0199016), wk =   0.0062500
        k(  160) = (   0.3333300   0.5773445  -0.0000000), wk =   0.0062500

                       cryst. coord.
        k(    1) = (   0.0000000   0.0000000   0.5000000), wk =   0.0062500
        k(    2) = (   0.0000000   0.0185185   0.5000000), wk =   0.0062500
        k(    3) = (   0.0000000   0.0370370   0.5000000), wk =   0.0062500
        k(    4) = (   0.0000000   0.0555556   0.5000000), wk =   0.0062500
        k(    5) = (   0.0000000   0.0740741   0.5000000), wk =   0.0062500
        k(    6) = (   0.0000000   0.0925926   0.5000000), wk =   0.0062500
        k(    7) = (   0.0000000   0.1111111   0.5000000), wk =   0.0062500
        k(    8) = (   0.0000000   0.1296296   0.5000000), wk =   0.0062500
        k(    9) = (   0.0000000   0.1481481   0.5000000), wk =   0.0062500
        k(   10) = (   0.0000000   0.1666667   0.5000000), wk =   0.0062500
        k(   11) = (   0.0000000   0.1851852   0.5000000), wk =   0.0062500
        k(   12) = (   0.0000000   0.2037037   0.5000000), wk =   0.0062500
        k(   13) = (   0.0000000   0.2222222   0.5000000), wk =   0.0062500
        k(   14) = (   0.0000000   0.2407407   0.5000000), wk =   0.0062500
        k(   15) = (   0.0000000   0.2592593   0.5000000), wk =   0.0062500
        k(   16) = (   0.0000000   0.2777778   0.5000000), wk =   0.0062500
        k(   17) = (   0.0000000   0.2962963   0.5000000), wk =   0.0062500
        k(   18) = (   0.0000000   0.3148148   0.5000000), wk =   0.0062500
        k(   19) = (   0.0000000   0.3333333   0.5000000), wk =   0.0062500
        k(   20) = (   0.0000000   0.3518519   0.5000000), wk =   0.0062500
        k(   21) = (   0.0000000   0.3703704   0.5000000), wk =   0.0062500
        k(   22) = (   0.0000000   0.3888889   0.5000000), wk =   0.0062500
        k(   23) = (   0.0000000   0.4074074   0.5000000), wk =   0.0062500
        k(   24) = (   0.0000000   0.4259259   0.5000000), wk =   0.0062500
        k(   25) = (   0.0000000   0.4444444   0.5000000), wk =   0.0062500
        k(   26) = (   0.0000000   0.4629630   0.5000000), wk =   0.0062500
        k(   27) = (   0.0000000   0.4814815   0.5000000), wk =   0.0062500
        k(   28) = (   0.0000000   0.5000000   0.5000000), wk =   0.0062500
        k(   29) = (   0.0222220   0.4888887   0.5000000), wk =   0.0062500
        k(   30) = (   0.0444440   0.4777773   0.5000000), wk =   0.0062500
        k(   31) = (   0.0666660   0.4666660   0.5000000), wk =   0.0062500
        k(   32) = (   0.0888880   0.4555547   0.5000000), wk =   0.0062500
        k(   33) = (   0.1111100   0.4444433   0.5000000), wk =   0.0062500
        k(   34) = (   0.1333320   0.4333320   0.5000000), wk =   0.0062500
        k(   35) = (   0.1555540   0.4222207   0.5000000), wk =   0.0062500
        k(   36) = (   0.1777760   0.4111093   0.5000000), wk =   0.0062500
        k(   37) = (   0.1999980   0.3999980   0.5000000), wk =   0.0062500
        k(   38) = (   0.2222200   0.3888867   0.5000000), wk =   0.0062500
        k(   39) = (   0.2444420   0.3777753   0.5000000), wk =   0.0062500
        k(   40) = (   0.2666640   0.3666640   0.5000000), wk =   0.0062500
        k(   41) = (   0.2888860   0.3555527   0.5000000), wk =   0.0062500
        k(   42) = (   0.3111080   0.3444413   0.5000000), wk =   0.0062500
        k(   43) = (   0.3333300   0.3333300   0.5000000), wk =   0.0062500
        k(   44) = (   0.3225774   0.3225774   0.5000000), wk =   0.0062500
        k(   45) = (   0.3118248   0.3118248   0.5000000), wk =   0.0062500
        k(   46) = (   0.3010723   0.3010723   0.5000000), wk =   0.0062500
        k(   47) = (   0.2903197   0.2903197   0.5000000), wk =   0.0062500
        k(   48) = (   0.2795671   0.2795671   0.5000000), wk =   0.0062500
        k(   49) = (   0.2688145   0.2688145   0.5000000), wk =   0.0062500
        k(   50) = (   0.2580619   0.2580619   0.5000000), wk =   0.0062500
        k(   51) = (   0.2473094   0.2473094   0.5000000), wk =   0.0062500
        k(   52) = (   0.2365568   0.2365568   0.5000000), wk =   0.0062500
        k(   53) = (   0.2258042   0.2258042   0.5000000), wk =   0.0062500
        k(   54) = (   0.2150516   0.2150516   0.5000000), wk =   0.0062500
        k(   55) = (   0.2042990   0.2042990   0.5000000), wk =   0.0062500
        k(   56) = (   0.1935465   0.1935465   0.5000000), wk =   0.0062500
        k(   57) = (   0.1827939   0.1827939   0.5000000), wk =   0.0062500
        k(   58) = (   0.1720413   0.1720413   0.5000000), wk =   0.0062500
        k(   59) = (   0.1612887   0.1612887   0.5000000), wk =   0.0062500
        k(   60) = (   0.1505361   0.1505361   0.5000000), wk =   0.0062500
        k(   61) = (   0.1397835   0.1397835   0.5000000), wk =   0.0062500
        k(   62) = (   0.1290310   0.1290310   0.5000000), wk =   0.0062500
        k(   63) = (   0.1182784   0.1182784   0.5000000), wk =   0.0062500
        k(   64) = (   0.1075258   0.1075258   0.5000000), wk =   0.0062500
        k(   65) = (   0.0967732   0.0967732   0.5000000), wk =   0.0062500
        k(   66) = (   0.0860206   0.0860206   0.5000000), wk =   0.0062500
        k(   67) = (   0.0752681   0.0752681   0.5000000), wk =   0.0062500
        k(   68) = (   0.0645155   0.0645155   0.5000000), wk =   0.0062500
        k(   69) = (   0.0537629   0.0537629   0.5000000), wk =   0.0062500
        k(   70) = (   0.0430103   0.0430103   0.5000000), wk =   0.0062500
        k(   71) = (   0.0322577   0.0322577   0.5000000), wk =   0.0062500
        k(   72) = (   0.0215052   0.0215052   0.5000000), wk =   0.0062500
        k(   73) = (   0.0107526   0.0107526   0.5000000), wk =   0.0062500
        k(   74) = (   0.0000000   0.0000000   0.5000000), wk =   0.0062500
        k(   75) = (   0.0000000   0.0000000   0.3333333), wk =   0.0062500
        k(   76) = (   0.0000000   0.0000000   0.1666667), wk =   0.0062500
        k(   77) = (   0.0000000   0.0000000   0.0000000), wk =   0.0062500
        k(   78) = (   0.0000000   0.0185185   0.0000000), wk =   0.0062500
        k(   79) = (   0.0000000   0.0370370   0.0000000), wk =   0.0062500
        k(   80) = (   0.0000000   0.0555556   0.0000000), wk =   0.0062500
        k(   81) = (   0.0000000   0.0740741   0.0000000), wk =   0.0062500
        k(   82) = (   0.0000000   0.0925926   0.0000000), wk =   0.0062500
        k(   83) = (   0.0000000   0.1111111   0.0000000), wk =   0.0062500
        k(   84) = (   0.0000000   0.1296296   0.0000000), wk =   0.0062500
        k(   85) = (   0.0000000   0.1481481   0.0000000), wk =   0.0062500
        k(   86) = (   0.0000000   0.1666667   0.0000000), wk =   0.0062500
        k(   87) = (   0.0000000   0.1851852   0.0000000), wk =   0.0062500
        k(   88) = (   0.0000000   0.2037037   0.0000000), wk =   0.0062500
        k(   89) = (   0.0000000   0.2222222   0.0000000), wk =   0.0062500
        k(   90) = (   0.0000000   0.2407407   0.0000000), wk =   0.0062500
        k(   91) = (   0.0000000   0.2592593   0.0000000), wk =   0.0062500
        k(   92) = (   0.0000000   0.2777778   0.0000000), wk =   0.0062500
        k(   93) = (   0.0000000   0.2962963   0.0000000), wk =   0.0062500
        k(   94) = (   0.0000000   0.3148148   0.0000000), wk =   0.0062500
        k(   95) = (   0.0000000   0.3333333   0.0000000), wk =   0.0062500
        k(   96) = (   0.0000000   0.3518519   0.0000000), wk =   0.0062500
        k(   97) = (   0.0000000   0.3703704   0.0000000), wk =   0.0062500
        k(   98) = (   0.0000000   0.3888889   0.0000000), wk =   0.0062500
        k(   99) = (   0.0000000   0.4074074   0.0000000), wk =   0.0062500
        k(  100) = (   0.0000000   0.4259259   0.0000000), wk =   0.0062500
        k(  101) = (   0.0000000   0.4444444   0.0000000), wk =   0.0062500
        k(  102) = (   0.0000000   0.4629630   0.0000000), wk =   0.0062500
        k(  103) = (   0.0000000   0.4814815   0.0000000), wk =   0.0062500
        k(  104) = (   0.0000000   0.5000000   0.0000000), wk =   0.0062500
        k(  105) = (   0.0222220   0.4888887   0.0000000), wk =   0.0062500
        k(  106) = (   0.0444440   0.4777773  -0.0000000), wk =   0.0062500
        k(  107) = (   0.0666660   0.4666660  -0.0000000), wk =   0.0062500
        k(  108) = (   0.0888880   0.4555547   0.0000000), wk =   0.0062500
        k(  109) = (   0.1111100   0.4444433   0.0000000), wk =   0.0062500
        k(  110) = (   0.1333320   0.4333320  -0.0000000), wk =   0.0062500
        k(  111) = (   0.1555540   0.4222207   0.0000000), wk =   0.0062500
        k(  112) = (   0.1777760   0.4111093   0.0000000), wk =   0.0062500
        k(  113) = (   0.1999980   0.3999980   0.0000000), wk =   0.0062500
        k(  114) = (   0.2222200   0.3888867   0.0000000), wk =   0.0062500
        k(  115) = (   0.2444420   0.3777753   0.0000000), wk =   0.0062500
        k(  116) = (   0.2666640   0.3666640   0.0000000), wk =   0.0062500
        k(  117) = (   0.2888860   0.3555527   0.0000000), wk =   0.0062500
        k(  118) = (   0.3111080   0.3444413   0.0000000), wk =   0.0062500
        k(  119) = (   0.3333300   0.3333300   0.0000000), wk =   0.0062500
        k(  120) = (   0.3225774   0.3225774   0.0000000), wk =   0.0062500
        k(  121) = (   0.3118248   0.3118248  -0.0000000), wk =   0.0062500
        k(  122) = (   0.3010723   0.3010723   0.0000000), wk =   0.0062500
        k(  123) = (   0.2903197   0.2903197   0.0000000), wk =   0.0062500
        k(  124) = (   0.2795671   0.2795671   0.0000000), wk =   0.0062500
        k(  125) = (   0.2688145   0.2688145   0.0000000), wk =   0.0062500
        k(  126) = (   0.2580619   0.2580619   0.0000000), wk =   0.0062500
        k(  127) = (   0.2473094   0.2473094   0.0000000), wk =   0.0062500
        k(  128) = (   0.2365568   0.2365568   0.0000000), wk =   0.0062500
        k(  129) = (   0.2258042   0.2258042   0.0000000), wk =   0.0062500
        k(  130) = (   0.2150516   0.2150516   0.0000000), wk =   0.0062500
        k(  131) = (   0.2042990   0.2042990   0.0000000), wk =   0.0062500
        k(  132) = (   0.1935465   0.1935465   0.0000000), wk =   0.0062500
        k(  133) = (   0.1827939   0.1827939  -0.0000000), wk =   0.0062500
        k(  134) = (   0.1720413   0.1720413  -0.0000000), wk =   0.0062500
        k(  135) = (   0.1612887   0.1612887   0.0000000), wk =   0.0062500
        k(  136) = (   0.1505361   0.1505361   0.0000000), wk =   0.0062500
        k(  137) = (   0.1397835   0.1397835   0.0000000), wk =   0.0062500
        k(  138) = (   0.1290310   0.1290310  -0.0000000), wk =   0.0062500
        k(  139) = (   0.1182784   0.1182784   0.0000000), wk =   0.0062500
        k(  140) = (   0.1075258   0.1075258   0.0000000), wk =   0.0062500
        k(  141) = (   0.0967732   0.0967732   0.0000000), wk =   0.0062500
        k(  142) = (   0.0860206   0.0860206  -0.0000000), wk =   0.0062500
        k(  143) = (   0.0752681   0.0752681   0.0000000), wk =   0.0062500
        k(  144) = (   0.0645155   0.0645155   0.0000000), wk =   0.0062500
        k(  145) = (   0.0537629   0.0537629   0.0000000), wk =   0.0062500
        k(  146) = (   0.0430103   0.0430103  -0.0000000), wk =   0.0062500
        k(  147) = (   0.0322577   0.0322577  -0.0000000), wk =   0.0062500
        k(  148) = (   0.0215052   0.0215052  -0.0000000), wk =   0.0062500
        k(  149) = (   0.0107526   0.0107526   0.0000000), wk =   0.0062500
        k(  150) = (   0.0000000   0.0000000   0.0000000), wk =   0.0062500
        k(  151) = (   0.0000000   0.5000000   0.5000000), wk =   0.0062500
        k(  152) = (   0.0000000   0.5000000   0.3750000), wk =   0.0062500
        k(  153) = (   0.0000000   0.5000000   0.2500000), wk =   0.0062500
        k(  154) = (   0.0000000   0.5000000   0.1250000), wk =   0.0062500
        k(  155) = (   0.0000000   0.5000000   0.0000000), wk =   0.0062500
        k(  156) = (   0.3333300   0.3333300   0.5000000), wk =   0.0062500
        k(  157) = (   0.3333300   0.3333300   0.3750000), wk =   0.0062500
        k(  158) = (   0.3333300   0.3333300   0.2500000), wk =   0.0062500
        k(  159) = (   0.3333300   0.3333300   0.1250000), wk =   0.0062500
        k(  160) = (   0.3333300   0.3333300   0.0000000), wk =   0.0062500

     Dense  grid:   484939 G-vectors     FFT dimensions: (  60,  60, 360)

     Estimated max dynamical RAM per process >      40.28MB

     Estimated total allocated dynamical RAM >    1933.64MB

     The potential is recalculated from file :
     /share/inl/marcel/TB-SO/GaSegamma_outdir/GaSegamma.save/charge-density.dat

     Starting wfc are  156 randomized atomic wfcs

     Band Structure Calculation
     Davidson diagonalization with overlap

     Computing kpt #:     1
     total cpu time spent up to now is       14.4 secs

     Computing kpt #:     2
     total cpu time spent up to now is       26.9 secs

     Computing kpt #:     3
     total cpu time spent up to now is       39.7 secs

     Computing kpt #:     4
     total cpu time spent up to now is       52.3 secs

     Computing kpt #:     5
     total cpu time spent up to now is       65.1 secs

     Computing kpt #:     6
     total cpu time spent up to now is       77.5 secs

     Computing kpt #:     7
     total cpu time spent up to now is       90.6 secs

     Computing kpt #:     8
     total cpu time spent up to now is      103.3 secs

     Computing kpt #:     9
     total cpu time spent up to now is      116.2 secs

     Computing kpt #:    10
     total cpu time spent up to now is      129.4 secs

     Computing kpt #:    11
     total cpu time spent up to now is      142.2 secs

     Computing kpt #:    12
     total cpu time spent up to now is      155.2 secs

     Computing kpt #:    13
     total cpu time spent up to now is      168.3 secs

     Computing kpt #:    14
     total cpu time spent up to now is      181.7 secs

     Computing kpt #:    15
     total cpu time spent up to now is      194.6 secs

     Computing kpt #:    16
     total cpu time spent up to now is      207.6 secs

     Computing kpt #:    17
     total cpu time spent up to now is      220.5 secs

     Computing kpt #:    18
     total cpu time spent up to now is      233.4 secs

     Computing kpt #:    19
     total cpu time spent up to now is      246.1 secs

     Computing kpt #:    20
     total cpu time spent up to now is      258.9 secs

     Computing kpt #:    21
     total cpu time spent up to now is      271.5 secs

     Computing kpt #:    22
     total cpu time spent up to now is      284.2 secs

     Computing kpt #:    23
     total cpu time spent up to now is      297.1 secs

     Computing kpt #:    24
     total cpu time spent up to now is      309.8 secs

     Computing kpt #:    25
     total cpu time spent up to now is      322.4 secs

     Computing kpt #:    26
     total cpu time spent up to now is      335.3 secs

     Computing kpt #:    27
     total cpu time spent up to now is      347.9 secs

     Computing kpt #:    28
     total cpu time spent up to now is      360.4 secs

     Computing kpt #:    29
     total cpu time spent up to now is      373.0 secs

     Computing kpt #:    30
     total cpu time spent up to now is      385.5 secs

     Computing kpt #:    31
     total cpu time spent up to now is      398.2 secs

     Computing kpt #:    32
     total cpu time spent up to now is      410.9 secs

     Computing kpt #:    33
     total cpu time spent up to now is      423.3 secs

     Computing kpt #:    34
     total cpu time spent up to now is      436.0 secs

     Computing kpt #:    35
     total cpu time spent up to now is      448.5 secs

     Computing kpt #:    36
     total cpu time spent up to now is      460.9 secs

     Computing kpt #:    37
     total cpu time spent up to now is      473.4 secs

     Computing kpt #:    38
     total cpu time spent up to now is      486.2 secs

     Computing kpt #:    39
     total cpu time spent up to now is      498.6 secs

     Computing kpt #:    40
     total cpu time spent up to now is      511.3 secs

     Computing kpt #:    41
     total cpu time spent up to now is      523.6 secs

     Computing kpt #:    42
     total cpu time spent up to now is      535.8 secs

     Computing kpt #:    43
     total cpu time spent up to now is      548.3 secs

     Computing kpt #:    44
     total cpu time spent up to now is      561.4 secs

     Computing kpt #:    45
     total cpu time spent up to now is      573.7 secs

     Computing kpt #:    46
     total cpu time spent up to now is      586.2 secs

     Computing kpt #:    47
     total cpu time spent up to now is      598.7 secs

     Computing kpt #:    48
     total cpu time spent up to now is      611.0 secs

     Computing kpt #:    49
     total cpu time spent up to now is      623.5 secs

     Computing kpt #:    50
     total cpu time spent up to now is      635.9 secs

     Computing kpt #:    51
     total cpu time spent up to now is      648.5 secs

     Computing kpt #:    52
     total cpu time spent up to now is      660.9 secs

     Computing kpt #:    53
     total cpu time spent up to now is      673.4 secs

     Computing kpt #:    54
     total cpu time spent up to now is      686.5 secs

     Computing kpt #:    55
     total cpu time spent up to now is      699.4 secs

     Computing kpt #:    56
     total cpu time spent up to now is      712.6 secs

     Computing kpt #:    57
     total cpu time spent up to now is      725.8 secs

     Computing kpt #:    58
     total cpu time spent up to now is      739.7 secs

     Computing kpt #:    59
     total cpu time spent up to now is      754.8 secs

     Computing kpt #:    60
     total cpu time spent up to now is      768.4 secs

     Computing kpt #:    61
     total cpu time spent up to now is      781.9 secs

     Computing kpt #:    62
     total cpu time spent up to now is      795.5 secs

     Computing kpt #:    63
     total cpu time spent up to now is      808.4 secs

     Computing kpt #:    64
     total cpu time spent up to now is      821.2 secs

     Computing kpt #:    65
     total cpu time spent up to now is      834.0 secs

     Computing kpt #:    66
     total cpu time spent up to now is      846.6 secs

     Computing kpt #:    67
     total cpu time spent up to now is      859.0 secs

     Computing kpt #:    68
     total cpu time spent up to now is      871.4 secs

     Computing kpt #:    69
     total cpu time spent up to now is      883.9 secs

     Computing kpt #:    70
     total cpu time spent up to now is      896.4 secs

     Computing kpt #:    71
     total cpu time spent up to now is      908.8 secs

     Computing kpt #:    72
     total cpu time spent up to now is      921.3 secs

     Computing kpt #:    73
     total cpu time spent up to now is      933.8 secs

     Computing kpt #:    74
     total cpu time spent up to now is      946.9 secs

     Computing kpt #:    75
     total cpu time spent up to now is      959.3 secs

     Computing kpt #:    76
     total cpu time spent up to now is      971.7 secs

     Computing kpt #:    77
     total cpu time spent up to now is      984.3 secs

     Computing kpt #:    78
     total cpu time spent up to now is      996.7 secs

     Computing kpt #:    79
     total cpu time spent up to now is     1009.3 secs

     Computing kpt #:    80
     total cpu time spent up to now is     1021.8 secs

     Computing kpt #:    81
     total cpu time spent up to now is     1034.4 secs

     Computing kpt #:    82
     total cpu time spent up to now is     1047.2 secs

     Computing kpt #:    83
     total cpu time spent up to now is     1060.1 secs

     Computing kpt #:    84
     total cpu time spent up to now is     1073.8 secs

     Computing kpt #:    85
     total cpu time spent up to now is     1087.2 secs

     Computing kpt #:    86
     total cpu time spent up to now is     1100.5 secs

     Computing kpt #:    87
     total cpu time spent up to now is     1113.3 secs

     Computing kpt #:    88
     total cpu time spent up to now is     1127.1 secs

     Computing kpt #:    89
     total cpu time spent up to now is     1140.1 secs

     Computing kpt #:    90
     total cpu time spent up to now is     1153.0 secs

     Computing kpt #:    91
     total cpu time spent up to now is     1166.1 secs

     Computing kpt #:    92
     total cpu time spent up to now is     1179.0 secs

     Computing kpt #:    93
     total cpu time spent up to now is     1191.9 secs

     Computing kpt #:    94
     total cpu time spent up to now is     1204.6 secs

     Computing kpt #:    95
     total cpu time spent up to now is     1217.4 secs

     Computing kpt #:    96
     total cpu time spent up to now is     1229.8 secs

     Computing kpt #:    97
     total cpu time spent up to now is     1242.4 secs

     Computing kpt #:    98
     total cpu time spent up to now is     1254.9 secs

     Computing kpt #:    99
     total cpu time spent up to now is     1267.6 secs

     Computing kpt #:   100
     total cpu time spent up to now is     1280.7 secs

     Computing kpt #:   101
     total cpu time spent up to now is     1293.4 secs

     Computing kpt #:   102
     total cpu time spent up to now is     1306.1 secs

     Computing kpt #:   103
     total cpu time spent up to now is     1318.7 secs

     Computing kpt #:   104
     total cpu time spent up to now is     1331.4 secs

     Computing kpt #:   105
     total cpu time spent up to now is     1344.2 secs

     Computing kpt #:   106
     total cpu time spent up to now is     1356.6 secs

     Computing kpt #:   107
     total cpu time spent up to now is     1369.6 secs

     Computing kpt #:   108
     total cpu time spent up to now is     1382.1 secs

     Computing kpt #:   109
     total cpu time spent up to now is     1395.0 secs

     Computing kpt #:   110
     total cpu time spent up to now is     1408.3 secs

     Computing kpt #:   111
     total cpu time spent up to now is     1420.7 secs

     Computing kpt #:   112
     total cpu time spent up to now is     1433.0 secs

     Computing kpt #:   113
     total cpu time spent up to now is     1445.4 secs

     Computing kpt #:   114
     total cpu time spent up to now is     1457.7 secs

     Computing kpt #:   115
     total cpu time spent up to now is     1469.9 secs

     Computing kpt #:   116
     total cpu time spent up to now is     1481.9 secs

     Computing kpt #:   117
     total cpu time spent up to now is     1494.0 secs

     Computing kpt #:   118
     total cpu time spent up to now is     1506.1 secs

     Computing kpt #:   119
     total cpu time spent up to now is     1518.3 secs

     Computing kpt #:   120
     total cpu time spent up to now is     1530.5 secs

     Computing kpt #:   121
     total cpu time spent up to now is     1542.5 secs

     Computing kpt #:   122
     total cpu time spent up to now is     1554.7 secs

     Computing kpt #:   123
     total cpu time spent up to now is     1566.9 secs

     Computing kpt #:   124
     total cpu time spent up to now is     1579.1 secs

     Computing kpt #:   125
     total cpu time spent up to now is     1591.6 secs

     Computing kpt #:   126
     total cpu time spent up to now is     1603.9 secs

     Computing kpt #:   127
     total cpu time spent up to now is     1616.4 secs

     Computing kpt #:   128
     total cpu time spent up to now is     1629.1 secs

     Computing kpt #:   129
     total cpu time spent up to now is     1641.6 secs

     Computing kpt #:   130
     total cpu time spent up to now is     1654.2 secs

     Computing kpt #:   131
     total cpu time spent up to now is     1666.9 secs

     Computing kpt #:   132
     total cpu time spent up to now is     1680.3 secs

     Computing kpt #:   133
     total cpu time spent up to now is     1693.7 secs

     Computing kpt #:   134
     total cpu time spent up to now is     1707.1 secs

     Computing kpt #:   135
     total cpu time spent up to now is     1720.8 secs

     Computing kpt #:   136
     total cpu time spent up to now is     1734.6 secs

     Computing kpt #:   137
     total cpu time spent up to now is     1748.1 secs

     Computing kpt #:   138
     total cpu time spent up to now is     1761.7 secs

     Computing kpt #:   139
     total cpu time spent up to now is     1775.3 secs

     Computing kpt #:   140
     total cpu time spent up to now is     1788.8 secs

     Computing kpt #:   141
     total cpu time spent up to now is     1801.6 secs

     Computing kpt #:   142
     total cpu time spent up to now is     1814.2 secs

     Computing kpt #:   143
     total cpu time spent up to now is     1827.0 secs

     Computing kpt #:   144
     total cpu time spent up to now is     1839.7 secs

     Computing kpt #:   145
     total cpu time spent up to now is     1852.7 secs

     Computing kpt #:   146
     total cpu time spent up to now is     1865.1 secs

     Computing kpt #:   147
     total cpu time spent up to now is     1877.5 secs

     Computing kpt #:   148
     total cpu time spent up to now is     1890.0 secs

     Computing kpt #:   149
     total cpu time spent up to now is     1902.4 secs

     Computing kpt #:   150
     total cpu time spent up to now is     1914.8 secs

     Computing kpt #:   151
     total cpu time spent up to now is     1927.2 secs

     Computing kpt #:   152
     total cpu time spent up to now is     1939.7 secs

     Computing kpt #:   153
     total cpu time spent up to now is     1952.4 secs

     Computing kpt #:   154
     total cpu time spent up to now is     1964.9 secs

     Computing kpt #:   155
     total cpu time spent up to now is     1977.2 secs

     Computing kpt #:   156
     total cpu time spent up to now is     1989.4 secs

     Computing kpt #:   157
     total cpu time spent up to now is     2001.4 secs

     Computing kpt #:   158
     total cpu time spent up to now is     2013.4 secs

     Computing kpt #:   159
     total cpu time spent up to now is     2025.5 secs

     Computing kpt #:   160
     total cpu time spent up to now is     2037.5 secs

     ethr =  6.14E-13,  avg # of iterations = 23.9

     total cpu time spent up to now is     2037.5 secs

     End of band structure calculation

          k = 0.0000 0.0000 0.0796 ( 60498 PWs)   bands (ev):

    -8.3851  -8.3851  -8.3851  -8.3851  -8.3846  -8.3846  -8.2801  -8.2801
    -8.2790  -8.2790  -8.2790  -8.2790  -8.2739  -8.2739  -8.2738  -8.2738
    -8.2738  -8.2738  -8.2562  -8.2562  -8.2561  -8.2561  -8.2561  -8.2561
    -7.8676  -7.8676  -7.8675  -7.8675  -7.8675  -7.8675  -7.8458  -7.8458
    -7.8457  -7.8457  -7.8441  -7.8441  -7.8363  -7.8363  -7.8335  -7.8335
    -7.8334  -7.8334  -7.7948  -7.7948  -7.7781  -7.7781  -7.7780  -7.7780
    -7.7674  -7.7674  -7.7673  -7.7673  -7.7672  -7.7672  -7.6739  -7.6739
    -7.6738  -7.6738  -7.6737  -7.6737  -7.5049  -7.5049  -7.5047  -7.5047
    -7.3565  -7.3565  -7.2040  -7.2040  -7.0539  -7.0539  -7.0537  -7.0537
    -0.3735  -0.3735  -0.3735  -0.3735  -0.0606  -0.0606   2.1591   2.1591
     2.9572   2.9572   2.9572   2.9572   5.1596   5.1596   5.2130   5.2130
     5.2134   5.2134   5.2860   5.2860   5.2861   5.2861   5.3942   5.3942
     5.4353   5.4353   5.4942   5.4942   5.4952   5.4952   5.6423   5.6423
     5.6433   5.6433   5.7046   5.7046   5.7049   5.7049   5.7099   5.7099
     6.9440   6.9440   7.6852   7.6852   8.4437   8.4437   8.4439   8.4439

          k = 0.0000 0.0214 0.0796 ( 60540 PWs)   bands (ev):

    -8.3853  -8.3852  -8.3852  -8.3851  -8.3848  -8.3847  -8.2807  -8.2807
    -8.2797  -8.2796  -8.2796  -8.2796  -8.2740  -8.2739  -8.2739  -8.2739
    -8.2739  -8.2738  -8.2563  -8.2563  -8.2562  -8.2562  -8.2562  -8.2562
    -7.8690  -7.8690  -7.8688  -7.8688  -7.8685  -7.8685  -7.8512  -7.8505
    -7.8503  -7.8501  -7.8496  -7.8493  -7.8331  -7.8323  -7.8322  -7.8321
    -7.8315  -7.8313  -7.7920  -7.7916  -7.7768  -7.7763  -7.7762  -7.7757
    -7.7671  -7.7670  -7.7669  -7.7669  -7.7666  -7.7665  -7.6739  -7.6739
    -7.6737  -7.6737  -7.6736  -7.6736  -7.4998  -7.4998  -7.4995  -7.4995
    -7.3519  -7.3518  -7.2004  -7.2003  -7.0502  -7.0502  -7.0501  -7.0501
    -0.3712  -0.3712  -0.3711  -0.3711  -0.0592  -0.0592   2.1613   2.1614
     2.9550   2.9551   2.9551   2.9551   5.1412   5.1413   5.1811   5.1822
     5.1839   5.1850   5.2642   5.2649   5.2662   5.2686   5.3685   5.3693
     5.4179   5.4180   5.4713   5.4720   5.4730   5.4739   5.5894   5.5903
     5.5930   5.5939   5.6834   5.6835   5.7604   5.7614   5.7618   5.7624
     6.9377   6.9412   7.7273   7.7302   8.4673   8.4678   8.4689   8.4691

          k = 0.0000 0.0428 0.0796 ( 60512 PWs)   bands (ev):

    -8.3857  -8.3856  -8.3855  -8.3855  -8.3852  -8.3851  -8.2823  -8.2823
    -8.2815  -8.2814  -8.2813  -8.2812  -8.2745  -8.2743  -8.2743  -8.2743
    -8.2742  -8.2741  -8.2566  -8.2565  -8.2565  -8.2564  -8.2564  -8.2564
    -7.8746  -7.8743  -7.8742  -7.8739  -7.8725  -7.8722  -7.8592  -7.8585
    -7.8577  -7.8569  -7.8562  -7.8554  -7.8310  -7.8309  -7.8308  -7.8302
    -7.8301  -7.8299  -7.7848  -7.7841  -7.7736  -7.7727  -7.7724  -7.7714
    -7.7663  -7.7659  -7.7647  -7.7646  -7.7640  -7.7639  -7.6738  -7.6738
    -7.6737  -7.6737  -7.6734  -7.6734  -7.4849  -7.4849  -7.4842  -7.4842
    -7.3381  -7.3378  -7.1896  -7.1894  -7.0394  -7.0393  -7.0392  -7.0391
    -0.3643  -0.3643  -0.3642  -0.3642  -0.0554  -0.0553   2.1680   2.1681
     2.9480   2.9483   2.9484   2.9486   5.0821   5.0821   5.0825   5.0847
     5.0855   5.0886   5.2088   5.2103   5.2112   5.2172   5.2881   5.2896
     5.3695   5.3698   5.4147   5.4153   5.4251   5.4261   5.5227   5.5247
     5.5389   5.5403   5.6223   5.6228   5.8298   5.8318   5.8322   5.8337
     6.9240   6.9295   7.8453   7.8502   8.5351   8.5381   8.5387   8.5398

          k = 0.0000 0.0642 0.0796 ( 60486 PWs)   bands (ev):

    -8.3864  -8.3863  -8.3861  -8.3860  -8.3859  -8.3857  -8.2847  -8.2847
    -8.2842  -8.2842  -8.2839  -8.2838  -8.2755  -8.2753  -8.2752  -8.2751
    -8.2749  -8.2748  -8.2571  -8.2570  -8.2569  -8.2569  -8.2568  -8.2567
    -7.8850  -7.8843  -7.8843  -7.8838  -7.8808  -7.8801  -7.8632  -7.8629
    -7.8627  -7.8623  -7.8602  -7.8596  -7.8316  -7.8314  -7.8309  -7.8308
    -7.8306  -7.8302  -7.7767  -7.7757  -7.7709  -7.7702  -7.7699  -7.7691
    -7.7642  -7.7635  -7.7593  -7.7589  -7.7583  -7.7579  -7.6735  -7.6735
    -7.6733  -7.6733  -7.6729  -7.6729  -7.4608  -7.4608  -7.4596  -7.4595
    -7.3154  -7.3151  -7.1716  -7.1713  -7.0214  -7.0213  -7.0210  -7.0210
    -0.3531  -0.3530  -0.3528  -0.3528  -0.0492  -0.0492   2.1787   2.1789
     2.9348   2.9355   2.9361   2.9367   4.9253   4.9257   4.9273   4.9294
     4.9750   4.9751   5.1236   5.1246   5.1249   5.1305   5.1473   5.1495
     5.3045   5.3049   5.3458   5.3466   5.3711   5.3724   5.4595   5.4627
     5.4924   5.4946   5.5582   5.5592   5.8870   5.8883   5.8906   5.8913
     6.9033   6.9096   8.0145   8.0203   8.6364   8.6427   8.6453   8.6466

          k = 0.0000 0.0855 0.0796 ( 60510 PWs)   bands (ev):

    -8.3873  -8.3872  -8.3870  -8.3868  -8.3868  -8.3866  -8.2877  -8.2877
    -8.2876  -8.2876  -8.2872  -8.2872  -8.2772  -8.2768  -8.2767  -8.2765
    -8.2762  -8.2761  -8.2577  -8.2576  -8.2575  -8.2574  -8.2573  -8.2572
    -7.8977  -7.8968  -7.8959  -7.8953  -7.8916  -7.8907  -7.8661  -7.8659
    -7.8656  -7.8655  -7.8629  -7.8625  -7.8333  -7.8331  -7.8325  -7.8323
    -7.8323  -7.8316  -7.7713  -7.7706  -7.7693  -7.7689  -7.7686  -7.7681
    -7.7586  -7.7581  -7.7523  -7.7522  -7.7504  -7.7503  -7.6728  -7.6728
    -7.6725  -7.6725  -7.6721  -7.6721  -7.4283  -7.4282  -7.4264  -7.4263
    -7.2845  -7.2841  -7.1466  -7.1462  -6.9965  -6.9964  -6.9959  -6.9959
    -0.3378  -0.3378  -0.3373  -0.3373  -0.0411  -0.0411   2.1930   2.1932
     2.9134   2.9145   2.9164   2.9176   4.7268   4.7300   4.7302   4.7306
     4.8205   4.8206   4.9579   4.9604   5.0031   5.0089   5.0107   5.0112
     5.2367   5.2371   5.2741   5.2750   5.3163   5.3178   5.3976   5.4016
     5.4471   5.4499   5.5004   5.5015   5.9296   5.9312   5.9340   5.9360
     6.8751   6.8815   8.2106   8.2169   8.7570   8.7668   8.7758   8.7762

          k = 0.0000 0.1069 0.0796 ( 60510 PWs)   bands (ev):

    -8.3885  -8.3884  -8.3880  -8.3880  -8.3879  -8.3878  -8.2917  -8.2917
    -8.2912  -8.2912  -8.2911  -8.2910  -8.2795  -8.2791  -8.2789  -8.2785
    -8.2782  -8.2780  -8.2584  -8.2583  -8.2582  -8.2579  -8.2578  -8.2577
    -7.9101  -7.9092  -7.9075  -7.9068  -7.9028  -7.9018  -7.8692  -7.8692
    -7.8680  -7.8679  -7.8656  -7.8653  -7.8353  -7.8351  -7.8346  -7.8344
    -7.8341  -7.8335  -7.7690  -7.7686  -7.7682  -7.7679  -7.7677  -7.7674
    -7.7507  -7.7506  -7.7455  -7.7454  -7.7430  -7.7429  -7.6715  -7.6715
    -7.6712  -7.6712  -7.6707  -7.6707  -7.3880  -7.3880  -7.3856  -7.3855
    -7.2460  -7.2455  -7.1147  -7.1142  -6.9649  -6.9647  -6.9640  -6.9640
    -0.3191  -0.3190  -0.3181  -0.3180  -0.0319  -0.0318   2.2100   2.2102
     2.8806   2.8824   2.8867   2.8887   4.5052   4.5084   4.5099   4.5104
     4.6281   4.6283   4.7428   4.7456   4.8617   4.8701   4.8722   4.8767
     5.1677   5.1681   5.2014   5.2022   5.2587   5.2602   5.3346   5.3388
     5.3992   5.4023   5.4439   5.4451   5.9575   5.9632   5.9641   5.9700
     6.8382   6.8444   8.4151   8.4217   8.8811   8.8956   8.9117   8.9154

          k = 0.0000 0.1283 0.0796 ( 60532 PWs)   bands (ev):

    -8.3899  -8.3897  -8.3895  -8.3894  -8.3892  -8.3891  -8.2963  -8.2962
    -8.2958  -8.2957  -8.2950  -8.2948  -8.2822  -8.2820  -8.2816  -8.2811
    -8.2809  -8.2805  -8.2591  -8.2590  -8.2588  -8.2584  -8.2583  -8.2581
    -7.9216  -7.9207  -7.9183  -7.9176  -7.9135  -7.9125  -7.8726  -7.8724
    -7.8706  -7.8705  -7.8685  -7.8683  -7.8372  -7.8370  -7.8366  -7.8364
    -7.8359  -7.8353  -7.7677  -7.7675  -7.7674  -7.7671  -7.7670  -7.7668
    -7.7433  -7.7433  -7.7394  -7.7392  -7.7366  -7.7365  -7.6697  -7.6696
    -7.6693  -7.6693  -7.6689  -7.6688  -7.3409  -7.3407  -7.3380  -7.3378
    -7.2004  -7.1999  -7.0763  -7.0757  -6.9269  -6.9266  -6.9257  -6.9256
    -0.2976  -0.2974  -0.2958  -0.2957  -0.0222  -0.0222   2.2281   2.2284
     2.8325   2.8351   2.8434   2.8463   4.2710   4.2736   4.2755   4.2768
     4.4091   4.4098   4.5194   4.5227   4.7141   4.7233   4.7284   4.7351
     5.0959   5.0964   5.1265   5.1271   5.1965   5.1977   5.2687   5.2727
     5.3466   5.3498   5.3849   5.3861   5.9742   5.9812   5.9872   5.9944
     6.7916   6.7975   8.6138   8.6205   8.9917   9.0125   9.0375   9.0463

          k = 0.0000 0.1497 0.0796 ( 60540 PWs)   bands (ev):

    -8.3916  -8.3914  -8.3912  -8.3910  -8.3908  -8.3907  -8.3013  -8.3012
    -8.3010  -8.3007  -8.2991  -8.2990  -8.2857  -8.2852  -8.2847  -8.2844
    -8.2841  -8.2835  -8.2596  -8.2595  -8.2593  -8.2589  -8.2588  -8.2585
    -7.9319  -7.9310  -7.9281  -7.9274  -7.9233  -7.9222  -7.8761  -7.8758
    -7.8734  -7.8732  -7.8717  -7.8715  -7.8387  -7.8386  -7.8382  -7.8380
    -7.8375  -7.8369  -7.7669  -7.7667  -7.7666  -7.7665  -7.7664  -7.7662
    -7.7370  -7.7370  -7.7341  -7.7340  -7.7314  -7.7312  -7.6672  -7.6672
    -7.6669  -7.6668  -7.6664  -7.6664  -7.2874  -7.2872  -7.2842  -7.2840
    -7.1484  -7.1478  -7.0316  -7.0309  -6.8827  -6.8824  -6.8813  -6.8811
    -0.2743  -0.2740  -0.2714  -0.2711  -0.0134  -0.0134   2.2451   2.2454
     2.7648   2.7683   2.7825   2.7865   4.0313   4.0333   4.0342   4.0362
     4.1761   4.1776   4.2968   4.3007   4.5728   4.5830   4.5906   4.5995
     5.0205   5.0210   5.0486   5.0490   5.1293   5.1302   5.1994   5.2032
     5.2891   5.2922   5.3221   5.3234   5.9807   5.9889   6.0022   6.0104
     6.7343   6.7400   8.7947   8.8014   9.0699   9.0977   9.1322   9.1482

          k = 0.0000 0.1711 0.0796 ( 60550 PWs)   bands (ev):

    -8.3935  -8.3932  -8.3931  -8.3928  -8.3927  -8.3924  -8.3068  -8.3067
    -8.3066  -8.3063  -8.3037  -8.3036  -8.2896  -8.2885  -8.2882  -8.2881
    -8.2874  -8.2869  -8.2601  -8.2599  -8.2597  -8.2593  -8.2591  -8.2589
    -7.9410  -7.9402  -7.9368  -7.9362  -7.9321  -7.9310  -7.8796  -7.8792
    -7.8763  -7.8760  -7.8749  -7.8748  -7.8399  -7.8398  -7.8394  -7.8393
    -7.8387  -7.8382  -7.7661  -7.7660  -7.7660  -7.7658  -7.7658  -7.7657
    -7.7319  -7.7319  -7.7298  -7.7297  -7.7273  -7.7271  -7.6643  -7.6642
    -7.6640  -7.6639  -7.6636  -7.6635  -7.2282  -7.2279  -7.2249  -7.2244
    -7.0905  -7.0900  -6.9809  -6.9803  -6.8330  -6.8325  -6.8313  -6.8310
    -0.2503  -0.2499  -0.2457  -0.2454  -0.0067  -0.0067   2.2574   2.2577
     2.6736   2.6778   2.7001   2.7052   3.7916   3.7917   3.7930   3.7943
     3.9418   3.9444   4.0790   4.0840   4.4477   4.4591   4.4689   4.4800
     4.9417   4.9422   4.9680   4.9681   5.0576   5.0581   5.1271   5.1305
     5.2271   5.2301   5.2556   5.2570   5.9776   5.9869   6.0096   6.0188
     6.6658   6.6712   8.9472   8.9540   9.0929   9.1226   9.1661   9.1859

          k = 0.0000 0.1925 0.0796 ( 60556 PWs)   bands (ev):

    -8.3956  -8.3953  -8.3951  -8.3949  -8.3947  -8.3944  -8.3129  -8.3127
    -8.3124  -8.3123  -8.3089  -8.3087  -8.2934  -8.2922  -8.2918  -8.2915
    -8.2907  -8.2903  -8.2604  -8.2603  -8.2600  -8.2596  -8.2594  -8.2592
    -7.9490  -7.9481  -7.9444  -7.9438  -7.9400  -7.9388  -7.8828  -7.8824
    -7.8792  -7.8788  -7.8781  -7.8781  -7.8407  -7.8406  -7.8403  -7.8402
    -7.8397  -7.8392  -7.7655  -7.7654  -7.7654  -7.7652  -7.7652  -7.7651
    -7.7280  -7.7279  -7.7264  -7.7263  -7.7241  -7.7240  -7.6610  -7.6609
    -7.6608  -7.6607  -7.6603  -7.6603  -7.1639  -7.1633  -7.1604  -7.1598
    -7.0274  -7.0269  -6.9248  -6.9242  -6.7780  -6.7773  -6.7761  -6.7756
    -0.2272  -0.2267  -0.2204  -0.2199  -0.0038  -0.0038   2.2591   2.2592
     2.5566   2.5613   2.5938   2.6001   3.5528   3.5559   3.5570   3.5574
     3.7178   3.7222   3.8700   3.8766   4.3457   4.3582   4.3698   4.3830
     4.8604   4.8610   4.8853   4.8855   4.9825   4.9825   5.0525   5.0555
     5.1615   5.1644   5.1861   5.1875   5.9647   5.9750   6.0092   6.0194
     6.5854   6.5906   9.0458   9.0625   9.0652   9.0692   9.1156   9.1269

          k = 0.0000 0.2138 0.0796 ( 60584 PWs)   bands (ev):

    -8.3979  -8.3975  -8.3974  -8.3971  -8.3969  -8.3965  -8.3196  -8.3189
    -8.3188  -8.3185  -8.3148  -8.3144  -8.2970  -8.2960  -8.2950  -8.2948
    -8.2940  -8.2937  -8.2607  -8.2605  -8.2603  -8.2599  -8.2597  -8.2595
    -7.9557  -7.9550  -7.9510  -7.9505  -7.9468  -7.9457  -7.8858  -7.8854
    -7.8819  -7.8815  -7.8811  -7.8811  -7.8413  -7.8411  -7.8409  -7.8408
    -7.8404  -7.8399  -7.7648  -7.7648  -7.7648  -7.7646  -7.7646  -7.7645
    -7.7249  -7.7249  -7.7237  -7.7237  -7.7217  -7.7216  -7.6575  -7.6574
    -7.6573  -7.6572  -7.6569  -7.6569  -7.0948  -7.0940  -7.0912  -7.0904
    -6.9596  -6.9591  -6.8636  -6.8630  -6.7183  -6.7173  -6.7163  -6.7154
    -0.2068  -0.2062  -0.1970  -0.1965  -0.0065  -0.0065   2.2409   2.2411
     2.4142   2.4191   2.4636   2.4708   3.3225   3.3259   3.3311   3.3316
     3.5155   3.5228   3.6745   3.6837   4.2696   4.2833   4.2960   4.3109
     4.7777   4.7783   4.8017   4.8022   4.9047   4.9052   4.9766   4.9791
     5.0933   5.0961   5.1145   5.1160   5.9413   5.9525   6.0006   6.0117
     6.4931   6.4981   8.9482   8.9559   9.0094   9.0120   9.1322   9.1387

          k = 0.0000 0.2352 0.0796 ( 60616 PWs)   bands (ev):

    -8.4004  -8.3999  -8.3997  -8.3995  -8.3992  -8.3988  -8.3265  -8.3255
    -8.3254  -8.3249  -8.3214  -8.3207  -8.3002  -8.2993  -8.2980  -8.2978
    -8.2971  -8.2969  -8.2609  -8.2607  -8.2605  -8.2601  -8.2599  -8.2597
    -7.9615  -7.9608  -7.9567  -7.9563  -7.9529  -7.9517  -7.8884  -7.8879
    -7.8844  -7.8839  -7.8838  -7.8838  -7.8417  -7.8415  -7.8413  -7.8412
    -7.8408  -7.8404  -7.7642  -7.7642  -7.7642  -7.7641  -7.7641  -7.7640
    -7.7226  -7.7226  -7.7216  -7.7216  -7.7199  -7.7198  -7.6539  -7.6538
    -7.6538  -7.6536  -7.6533  -7.6533  -7.0214  -7.0204  -7.0178  -7.0167
    -6.8876  -6.8872  -6.7979  -6.7974  -6.6545  -6.6531  -6.6523  -6.6510
    -0.1914  -0.1906  -0.1778  -0.1771  -0.0170  -0.0170   2.1912   2.1919
     2.2498   2.2544   2.3119   2.3197   3.1056   3.1091   3.1182   3.1197
     3.3455   3.3577   3.4995   3.5130   4.2187   4.2337   4.2461   4.2627
     4.6945   4.6952   4.7186   4.7194   4.8259   4.8271   4.9003   4.9024
     5.0236   5.0263   5.0418   5.0434   5.9064   5.9184   5.9828   5.9949
     6.3891   6.3938   8.8308   8.8312   8.8825   8.8848   9.1265   9.1298

          k = 0.0000 0.2566 0.0796 ( 60624 PWs)   bands (ev):

    -8.4030  -8.4023  -8.4022  -8.4020  -8.4016  -8.4012  -8.3336  -8.3325
    -8.3321  -8.3316  -8.3284  -8.3275  -8.3029  -8.3022  -8.3008  -8.3005
    -8.2999  -8.2997  -8.2611  -8.2609  -8.2607  -8.2603  -8.2601  -8.2600
    -7.9664  -7.9657  -7.9616  -7.9613  -7.9581  -7.9569  -7.8906  -7.8901
    -7.8866  -7.8862  -7.8861  -7.8861  -7.8419  -7.8417  -7.8416  -7.8414
    -7.8411  -7.8408  -7.7636  -7.7636  -7.7636  -7.7635  -7.7634  -7.7634
    -7.7208  -7.7208  -7.7201  -7.7200  -7.7185  -7.7185  -7.6503  -7.6502
    -7.6502  -7.6501  -7.6498  -7.6497  -6.9444  -6.9429  -6.9408  -6.9393
    -6.8120  -6.8117  -6.7282  -6.7278  -6.5871  -6.5853  -6.5847  -6.5831
    -0.1837  -0.1827  -0.1652  -0.1644  -0.0373  -0.0372   2.0682   2.0724
     2.0999   2.1012   2.1429   2.1509   2.9072   2.9105   2.9230   2.9255
     3.2105   3.2288   3.3583   3.3774   4.1901   4.2062   4.2164   4.2346
     4.6121   4.6129   4.6372   4.6386   4.7475   4.7494   4.8245   4.8262
     4.9535   4.9560   4.9689   4.9707   5.8590   5.8719   5.9549   5.9678
     6.2740   6.2784   8.7073   8.7117   8.7537   8.7591   9.0494   9.0504

          k = 0.0000 0.2780 0.0796 ( 60618 PWs)   bands (ev):

    -8.4057  -8.4048  -8.4047  -8.4047  -8.4040  -8.4037  -8.3407  -8.3395
    -8.3389  -8.3383  -8.3357  -8.3345  -8.3052  -8.3047  -8.3034  -8.3028
    -8.3025  -8.3022  -8.2612  -8.2611  -8.2608  -8.2605  -8.2603  -8.2602
    -7.9705  -7.9699  -7.9658  -7.9656  -7.9627  -7.9615  -7.8924  -7.8919
    -7.8885  -7.8882  -7.8881  -7.8879  -7.8420  -7.8417  -7.8417  -7.8415
    -7.8413  -7.8410  -7.7630  -7.7630  -7.7629  -7.7629  -7.7628  -7.7628
    -7.7195  -7.7195  -7.7188  -7.7188  -7.7175  -7.7175  -7.6468  -7.6467
    -7.6467  -7.6465  -7.6463  -7.6462  -6.8641  -6.8622  -6.8606  -6.8586
    -6.7335  -6.7333  -6.6551  -6.6548  -6.5168  -6.5145  -6.5143  -6.5121
    -0.1865  -0.1853  -0.1621  -0.1612  -0.0693  -0.0691   1.8752   1.8788
     1.9612   1.9663   1.9683   1.9690   2.7324   2.7350   2.7495   2.7531
     3.0982   3.1183   3.2742   3.2945   4.1791   4.1966   4.2019   4.2218
     4.5313   4.5321   4.5593   4.5613   4.6707   4.6735   4.7502   4.7514
     4.8839   4.8863   4.8968   4.8988   5.7985   5.8121   5.9157   5.9295
     6.1487   6.1529   8.5913   8.5992   8.6321   8.6398   8.9652   8.9653

          k = 0.0000 0.2994 0.0796 ( 60624 PWs)   bands (ev):

    -8.4084  -8.4074  -8.4073  -8.4072  -8.4065  -8.4062  -8.3477  -8.3465
    -8.3456  -8.3450  -8.3430  -8.3417  -8.3071  -8.3067  -8.3056  -8.3049
    -8.3047  -8.3043  -8.2614  -8.2612  -8.2610  -8.2607  -8.2605  -8.2604
    -7.9740  -7.9734  -7.9694  -7.9694  -7.9667  -7.9655  -7.8938  -7.8933
    -7.8901  -7.8899  -7.8898  -7.8895  -7.8420  -7.8417  -7.8417  -7.8416
    -7.8413  -7.8411  -7.7624  -7.7623  -7.7623  -7.7622  -7.7622  -7.7621
    -7.7184  -7.7184  -7.7179  -7.7178  -7.7167  -7.7167  -7.6434  -7.6432
    -7.6432  -7.6431  -7.6429  -7.6428  -6.7814  -6.7788  -6.7779  -6.7752
    -6.6527  -6.6526  -6.5793  -6.5791  -6.4445  -6.4419  -6.4413  -6.4389
    -0.2025  -0.2011  -0.1713  -0.1702  -0.1142  -0.1140   1.6761   1.6790
     1.7717   1.7790   1.8003   1.8027   2.5853   2.5872   2.6015   2.6061
     2.9987   3.0156   3.2514   3.2683   4.1812   4.1967   4.2001   4.2183
     4.4530   4.4539   4.4873   4.4900   4.5970   4.6010   4.6782   4.6787
     4.8157   4.8180   4.8264   4.8285   5.7245   5.7389   5.8644   5.8792
     6.0149   6.0188   8.4868   8.4978   8.5206   8.5302   8.8836   8.8843

          k = 0.0000 0.3208 0.0796 ( 60620 PWs)   bands (ev):

    -8.4111  -8.4100  -8.4099  -8.4097  -8.4090  -8.4088  -8.3546  -8.3533
    -8.3522  -8.3516  -8.3503  -8.3488  -8.3087  -8.3085  -8.3075  -8.3067
    -8.3067  -8.3062  -8.2615  -8.2614  -8.2611  -8.2609  -8.2607  -8.2606
    -7.9770  -7.9764  -7.9726  -7.9726  -7.9703  -7.9690  -7.8949  -7.8944
    -7.8914  -7.8913  -7.8911  -7.8907  -7.8419  -7.8417  -7.8417  -7.8415
    -7.8413  -7.8411  -7.7618  -7.7617  -7.7617  -7.7616  -7.7616  -7.7615
    -7.7176  -7.7176  -7.7171  -7.7170  -7.7161  -7.7161  -7.6401  -7.6400
    -7.6400  -7.6398  -7.6396  -7.6396  -6.6968  -6.6936  -6.6933  -6.6899
    -6.5706  -6.5705  -6.5016  -6.5015  -6.3708  -6.3682  -6.3668  -6.3643
    -0.2337  -0.2322  -0.1952  -0.1940  -0.1725  -0.1722   1.4758   1.4780
     1.5787   1.5853   1.6152   1.6178   2.4694   2.4704   2.4824   2.4879
     2.9161   2.9299   3.2696   3.2836   4.1912   4.1936   4.2121   4.2167
     4.3781   4.3791   4.4254   4.4287   4.5280   4.5338   4.6091   4.6094
     4.7498   4.7520   4.7582   4.7606   5.6374   5.6526   5.8008   5.8164
     5.8741   5.8778   8.3958   8.4094   8.4207   8.4320   8.8061   8.8077

          k = 0.0000 0.3421 0.0796 ( 60622 PWs)   bands (ev):

    -8.4138  -8.4126  -8.4123  -8.4122  -8.4115  -8.4112  -8.3611  -8.3598
    -8.3585  -8.3580  -8.3573  -8.3557  -8.3101  -8.3099  -8.3091  -8.3083
    -8.3083  -8.3079  -8.2616  -8.2615  -8.2613  -8.2610  -8.2609  -8.2608
    -7.9795  -7.9789  -7.9755  -7.9752  -7.9733  -7.9721  -7.8956  -7.8952
    -7.8924  -7.8923  -7.8920  -7.8917  -7.8418  -7.8416  -7.8416  -7.8415
    -7.8413  -7.8411  -7.7611  -7.7610  -7.7610  -7.7610  -7.7609  -7.7609
    -7.7170  -7.7170  -7.7165  -7.7164  -7.7157  -7.7157  -7.6370  -7.6369
    -7.6369  -7.6367  -7.6366  -7.6365  -6.6112  -6.6079  -6.6070  -6.6034
    -6.4882  -6.4877  -6.4229  -6.4226  -6.2968  -6.2941  -6.2916  -6.2891
    -0.2811  -0.2795  -0.2434  -0.2430  -0.2353  -0.2340   1.2783   1.2800
     1.3864   1.3921   1.4222   1.4247   2.3862   2.3862   2.3944   2.4006
     2.8547   2.8666   3.3131   3.3254   4.1835   4.2037   4.2063   4.2267
     4.3074   4.3084   4.3817   4.3836   4.4665   4.4747   4.5431   4.5448
     4.6869   4.6889   4.6932   4.6959   5.5385   5.5545   5.7250   5.7286
     5.7320   5.7416   8.3185   8.3325   8.3349   8.3453   8.7325   8.7349

          k = 0.0000 0.3635 0.0796 ( 60620 PWs)   bands (ev):

    -8.4164  -8.4152  -8.4147  -8.4145  -8.4139  -8.4134  -8.3672  -8.3660
    -8.3646  -8.3641  -8.3640  -8.3623  -8.3112  -8.3112  -8.3105  -8.3097
    -8.3096  -8.3092  -8.2618  -8.2616  -8.2614  -8.2612  -8.2611  -8.2610
    -7.9816  -7.9810  -7.9779  -7.9775  -7.9760  -7.9748  -7.8961  -7.8957
    -7.8932  -7.8931  -7.8928  -7.8925  -7.8416  -7.8415  -7.8414  -7.8413
    -7.8412  -7.8410  -7.7605  -7.7604  -7.7604  -7.7603  -7.7603  -7.7602
    -7.7164  -7.7164  -7.7161  -7.7159  -7.7153  -7.7153  -7.6341  -7.6340
    -7.6340  -7.6339  -7.6337  -7.6337  -6.5257  -6.5224  -6.5203  -6.5167
    -6.4063  -6.4056  -6.3440  -6.3433  -6.2235  -6.2207  -6.2169  -6.2144
    -0.3440  -0.3422  -0.3250  -0.3245  -0.2914  -0.2902   1.0872   1.0884
     1.1983   1.2032   1.2290   1.2315   2.3345   2.3354   2.3381   2.3449
     2.8156   2.8264   3.3724   3.3841   4.1582   4.1778   4.2109   4.2358
     4.2414   4.2426   4.3603   4.3628   4.4167   4.4282   4.4818   4.4864
     4.6277   4.6294   4.6317   4.6348   5.4298   5.4469   5.5806   5.5838
     5.6380   5.6556   8.2546   8.2554   8.2695   8.2737   8.6617   8.6649

          k = 0.0000 0.3849 0.0796 ( 60636 PWs)   bands (ev):

    -8.4188  -8.4176  -8.4169  -8.4168  -8.4163  -8.4156  -8.3729  -8.3719
    -8.3704  -8.3701  -8.3697  -8.3684  -8.3122  -8.3122  -8.3116  -8.3109
    -8.3108  -8.3104  -8.2619  -8.2618  -8.2616  -8.2614  -8.2613  -8.2612
    -7.9833  -7.9828  -7.9801  -7.9795  -7.9784  -7.9771  -7.8964  -7.8960
    -7.8938  -7.8938  -7.8933  -7.8930  -7.8415  -7.8413  -7.8413  -7.8412
    -7.8411  -7.8409  -7.7598  -7.7598  -7.7597  -7.7597  -7.7596  -7.7596
    -7.7160  -7.7160  -7.7157  -7.7155  -7.7150  -7.7150  -7.6315  -7.6314
    -7.6314  -7.6312  -7.6311  -7.6310  -6.4412  -6.4381  -6.4344  -6.4309
    -6.3263  -6.3251  -6.2659  -6.2649  -6.1520  -6.1491  -6.1438  -6.1413
    -0.4198  -0.4180  -0.4143  -0.4138  -0.3618  -0.3606   0.9056   0.9063
     1.0177   1.0219   1.0411   1.0436   2.3123   2.3132   2.3149   2.3198
     2.7973   2.8075   3.4418   3.4536   4.1193   4.1352   4.1810   4.1822
     4.2043   4.2284   4.3549   4.3623   4.3815   4.3974   4.4290   4.4404
     4.5729   4.5740   4.5743   4.5780   5.3146   5.3329   5.4329   5.4359
     5.5414   5.5602   8.1885   8.2028   8.2034   8.2244   8.5926   8.5966

          k = 0.0000 0.4063 0.0796 ( 60654 PWs)   bands (ev):

    -8.4211  -8.4198  -8.4190  -8.4188  -8.4186  -8.4175  -8.3781  -8.3772
    -8.3761  -8.3753  -8.3750  -8.3741  -8.3130  -8.3130  -8.3126  -8.3118
    -8.3117  -8.3114  -8.2620  -8.2619  -8.2617  -8.2616  -8.2615  -8.2614
    -7.9848  -7.9843  -7.9820  -7.9812  -7.9804  -7.9791  -7.8965  -7.8962
    -7.8942  -7.8942  -7.8936  -7.8934  -7.8413  -7.8412  -7.8411  -7.8411
    -7.8410  -7.8408  -7.7592  -7.7592  -7.7591  -7.7591  -7.7590  -7.7590
    -7.7157  -7.7157  -7.7154  -7.7151  -7.7148  -7.7148  -7.6291  -7.6289
    -7.6289  -7.6288  -7.6287  -7.6287  -6.3590  -6.3561  -6.3505  -6.3470
    -6.2495  -6.2478  -6.1898  -6.1883  -6.0835  -6.0806  -6.0733  -6.0709
    -0.5078  -0.5073  -0.5047  -0.5031  -0.4431  -0.4421   0.7361   0.7364
     0.8476   0.8512   0.8626   0.8650   2.3146   2.3187   2.3209   2.3226
     2.7964   2.8065   3.5169   3.5296   4.0746   4.0881   4.1270   4.1281
     4.1811   4.2015   4.3471   4.3575   4.3616   4.3683   4.4053   4.4208
     4.5214   4.5230   4.5233   4.5258   5.1970   5.2168   5.2883   5.2913
     5.4374   5.4575   8.1307   8.1460   8.1613   8.1852   8.5246   8.5293

          k = 0.0000 0.4277 0.0796 ( 60674 PWs)   bands (ev):

    -8.4231  -8.4218  -8.4209  -8.4208  -8.4207  -8.4194  -8.3826  -8.3820
    -8.3813  -8.3800  -8.3797  -8.3791  -8.3137  -8.3136  -8.3134  -8.3126
    -8.3125  -8.3123  -8.2621  -8.2621  -8.2619  -8.2618  -8.2616  -8.2616
    -7.9861  -7.9855  -7.9836  -7.9827  -7.9822  -7.9809  -7.8965  -7.8962
    -7.8945  -7.8945  -7.8938  -7.8936  -7.8411  -7.8411  -7.8410  -7.8409
    -7.8408  -7.8407  -7.7586  -7.7586  -7.7585  -7.7585  -7.7584  -7.7584
    -7.7154  -7.7154  -7.7151  -7.7149  -7.7146  -7.7146  -7.6269  -7.6268
    -7.6268  -7.6267  -7.6266  -7.6265  -6.2806  -6.2778  -6.2700  -6.2665
    -6.1772  -6.1751  -6.1168  -6.1148  -6.0195  -6.0165  -6.0069  -6.0045
    -0.6014  -0.6008  -0.5942  -0.5927  -0.5310  -0.5301   0.5812   0.5812
     0.6905   0.6935   0.6966   0.6988   2.3409   2.3462   2.3488   2.3494
     2.8087   2.8190   3.5941   3.6086   4.0300   4.0422   4.0804   4.0813
     4.1478   4.1648   4.3062   4.3167   4.3601   4.3726   4.4051   4.4220
     4.4733   4.4777   4.4787   4.4792   5.0828   5.1042   5.1505   5.1536
     5.3288   5.3503   8.0808   8.0960   8.1282   8.1539   8.4575   8.4628

          k = 0.0000 0.4491 0.0796 ( 60700 PWs)   bands (ev):

    -8.4249  -8.4236  -8.4227  -8.4226  -8.4224  -8.4210  -8.3866  -8.3863
    -8.3860  -8.3841  -8.3839  -8.3836  -8.3143  -8.3141  -8.3140  -8.3133
    -8.3131  -8.3130  -8.2623  -8.2622  -8.2620  -8.2619  -8.2618  -8.2617
    -7.9871  -7.9865  -7.9850  -7.9839  -7.9837  -7.9823  -7.8964  -7.8961
    -7.8947  -7.8947  -7.8940  -7.8938  -7.8410  -7.8409  -7.8409  -7.8408
    -7.8407  -7.8407  -7.7581  -7.7580  -7.7580  -7.7579  -7.7579  -7.7579
    -7.7151  -7.7151  -7.7149  -7.7146  -7.7145  -7.7144  -7.6250  -7.6249
    -7.6249  -7.6248  -7.6247  -7.6246  -6.2075  -6.2049  -6.1943  -6.1908
    -6.1112  -6.1087  -6.0482  -6.0458  -5.9613  -5.9582  -5.9457  -5.9434
    -0.6910  -0.6905  -0.6834  -0.6821  -0.6206  -0.6199   0.4428   0.4431
     0.5455   0.5476   0.5489   0.5513   2.3869   2.3905   2.3935   2.3960
     2.8291   2.8399   3.6696   3.6869   3.9884   4.0001   4.0429   4.0433
     4.1121   4.1268   4.2661   4.2748   4.3579   4.3696   4.4043   4.4233
     4.4305   4.4370   4.4375   4.4424   4.9796   5.0022   5.0235   5.0269
     5.2185   5.2416   8.0381   8.0526   8.1020   8.1285   8.3916   8.3976

          k = 0.0000 0.4704 0.0796 ( 60710 PWs)   bands (ev):

    -8.4265  -8.4252  -8.4245  -8.4242  -8.4238  -8.4224  -8.3900  -8.3900
    -8.3899  -8.3876  -8.3876  -8.3874  -8.3147  -8.3145  -8.3144  -8.3138
    -8.3137  -8.3135  -8.2624  -8.2623  -8.2621  -8.2621  -8.2620  -8.2619
    -7.9879  -7.9873  -7.9861  -7.9850  -7.9848  -7.9836  -7.8963  -7.8960
    -7.8948  -7.8948  -7.8940  -7.8938  -7.8408  -7.8408  -7.8407  -7.8407
    -7.8406  -7.8406  -7.7576  -7.7575  -7.7575  -7.7574  -7.7574  -7.7574
    -7.7149  -7.7149  -7.7147  -7.7145  -7.7143  -7.7143  -7.6234  -7.6233
    -7.6232  -7.6232  -7.6231  -7.6230  -6.1414  -6.1390  -6.1251  -6.1215
    -6.0531  -6.0501  -5.9855  -5.9827  -5.9103  -5.9071  -5.8911  -5.8891
    -0.7729  -0.7724  -0.7676  -0.7665  -0.7071  -0.7066   0.3233   0.3239
     0.4117   0.4137   0.4248   0.4267   2.4461   2.4479   2.4492   2.4575
     2.8519   2.8635   3.7380   3.7594   3.9512   3.9631   4.0173   4.0181
     4.0781   4.0912   4.2298   4.2377   4.3479   4.3564   4.3923   4.3931
     4.4010   4.4030   4.4121   4.4134   4.8964   4.9119   4.9159   4.9189
     5.1101   5.1346   8.0022   8.0153   8.0820   8.1080   8.3282   8.3349

          k = 0.0000 0.4918 0.0796 ( 60696 PWs)   bands (ev):

    -8.4277  -8.4264  -8.4260  -8.4255  -8.4248  -8.4237  -8.3932  -8.3931
    -8.3927  -8.3907  -8.3906  -8.3905  -8.3151  -8.3149  -8.3147  -8.3142
    -8.3141  -8.3140  -8.2624  -8.2624  -8.2622  -8.2622  -8.2621  -8.2620
    -7.9885  -7.9879  -7.9871  -7.9861  -7.9856  -7.9846  -7.8961  -7.8958
    -7.8949  -7.8949  -7.8940  -7.8939  -7.8407  -7.8407  -7.8406  -7.8406
    -7.8405  -7.8405  -7.7572  -7.7571  -7.7571  -7.7570  -7.7570  -7.7570
    -7.7147  -7.7147  -7.7146  -7.7143  -7.7142  -7.7142  -7.6220  -7.6220
    -7.6219  -7.6219  -7.6217  -7.6217  -6.0839  -6.0819  -6.0639  -6.0603
    -6.0043  -6.0010  -5.9300  -5.9269  -5.8679  -5.8647  -5.8445  -5.8427
    -0.8434  -0.8430  -0.8427  -0.8418  -0.7862  -0.7858   0.2246   0.2253
     0.2972   0.2991   0.3202   0.3217   2.5069   2.5098   2.5190   2.5294
     2.8708   2.8832   3.7913   3.8172   3.9193   3.9318   4.0106   4.0119
     4.0477   4.0596   4.1981   4.2057   4.3283   4.3346   4.3617   4.3652
     4.3711   4.3744   4.3832   4.3886   4.8206   4.8259   4.8401   4.8600
     5.0070   5.0328   7.9729   7.9841   8.0682   8.0926   8.2685   8.2761

          k = 0.0000 0.5132 0.0796 ( 60688 PWs)   bands (ev):

    -8.4286  -8.4274  -8.4273  -8.4266  -8.4257  -8.4247  -8.3957  -8.3956
    -8.3947  -8.3931  -8.3930  -8.3929  -8.3153  -8.3152  -8.3149  -8.3145
    -8.3144  -8.3144  -8.2625  -8.2625  -8.2623  -8.2623  -8.2623  -8.2622
    -7.9889  -7.9883  -7.9879  -7.9870  -7.9861  -7.9854  -7.8959  -7.8957
    -7.8950  -7.8950  -7.8939  -7.8939  -7.8406  -7.8406  -7.8406  -7.8405
    -7.8405  -7.8404  -7.7568  -7.7568  -7.7568  -7.7567  -7.7567  -7.7566
    -7.7146  -7.7146  -7.7145  -7.7143  -7.7141  -7.7141  -7.6210  -7.6209
    -7.6209  -7.6208  -7.6207  -7.6207  -6.0369  -6.0353  -6.0124  -6.0088
    -5.9664  -5.9629  -5.8831  -5.8798  -5.8353  -5.8320  -5.8068  -5.8054
    -0.9050  -0.9044  -0.8996  -0.8992  -0.8540  -0.8538   0.1482   0.1491
     0.2039   0.2057   0.2369   0.2380   2.5661   2.5687   2.5954   2.6065
     2.8795   2.8927   3.8224   3.8496   3.8929   3.9065   4.0221   4.0304
     4.0321   4.0325   4.1715   4.1785   4.2990   4.3079   4.3276   4.3373
     4.3416   4.3478   4.3517   4.3637   4.7543   4.7618   4.8097   4.8249
     4.9133   4.9395   7.9501   7.9590   8.0617   8.0836   8.2140   8.2228

          k = 0.0000 0.5346 0.0796 ( 60666 PWs)   bands (ev):

    -8.4292  -8.4283  -8.4280  -8.4274  -8.4262  -8.4255  -8.3975  -8.3974
    -8.3961  -8.3950  -8.3947  -8.3946  -8.3155  -8.3154  -8.3150  -8.3147
    -8.3146  -8.3146  -8.2625  -8.2625  -8.2624  -8.2624  -8.2623  -8.2622
    -7.9892  -7.9886  -7.9885  -7.9877  -7.9865  -7.9860  -7.8957  -7.8955
    -7.8951  -7.8950  -7.8939  -7.8939  -7.8405  -7.8405  -7.8405  -7.8404
    -7.8404  -7.8404  -7.7566  -7.7565  -7.7565  -7.7565  -7.7564  -7.7564
    -7.7145  -7.7145  -7.7144  -7.7142  -7.7141  -7.7140  -7.6202  -7.6202
    -7.6201  -7.6201  -7.6199  -7.6199  -6.0019  -6.0008  -5.9720  -5.9683
    -5.9407  -5.9371  -5.8461  -5.8428  -5.8137  -5.8103  -5.7791  -5.7781
    -0.9517  -0.9512  -0.9391  -0.9387  -0.9073  -0.9073   0.0954   0.0966
     0.1332   0.1348   0.1763   0.1771   2.6165   2.6185   2.6718   2.6837
     2.8726   2.8863   3.8350   3.8601   3.8722   3.8873   4.0024   4.0105
     4.0692   4.0773   4.1505   4.1562   4.2609   4.2754   4.2912   4.3004
     4.3207   4.3315   4.3349   4.3402   4.7161   4.7271   4.7970   4.8068
     4.8326   4.8582   7.9341   7.9403   8.0635   8.0827   8.1663   8.1764

          k = 0.0000 0.5560 0.0796 ( 60644 PWs)   bands (ev):

    -8.4295  -8.4291  -8.4283  -8.4280  -8.4264  -8.4260  -8.3986  -8.3985
    -8.3968  -8.3962  -8.3957  -8.3957  -8.3156  -8.3156  -8.3150  -8.3148
    -8.3148  -8.3147  -8.2626  -8.2625  -8.2625  -8.2625  -8.2624  -8.2623
    -7.9893  -7.9889  -7.9886  -7.9882  -7.9867  -7.9864  -7.8955  -7.8954
    -7.8952  -7.8951  -7.8939  -7.8938  -7.8405  -7.8405  -7.8404  -7.8404
    -7.8404  -7.8404  -7.7564  -7.7564  -7.7563  -7.7563  -7.7563  -7.7563
    -7.7145  -7.7144  -7.7143  -7.7142  -7.7140  -7.7140  -7.6198  -7.6198
    -7.6196  -7.6196  -7.6195  -7.6195  -5.9802  -5.9796  -5.9440  -5.9403
    -5.9281  -5.9244  -5.8201  -5.8167  -5.8037  -5.8003  -5.7621  -5.7616
    -0.9805  -0.9803  -0.9601  -0.9598  -0.9438  -0.9437   0.0673   0.0686
     0.0863   0.0879   0.1396   0.1400   2.6510   2.6521   2.7428   2.7555
     2.8471   2.8609   3.8407   3.8570   3.8629   3.8742   3.9902   3.9948
     4.1171   4.1313   4.1369   4.1402   4.2161   4.2343   4.2667   4.2712
     4.3128   4.3223   4.3227   4.3243   4.7071   4.7224   4.7689   4.7922
     4.7935   4.7983   7.9251   7.9282   8.0748   8.0912   8.1265   8.1385

          k = 0.0000 0.5774 0.0796 ( 60632 PWs)   bands (ev):

    -8.4294  -8.4294  -8.4283  -8.4283  -8.4264  -8.4264  -8.3989  -8.3989
    -8.3968  -8.3968  -8.3961  -8.3961  -8.3156  -8.3156  -8.3150  -8.3150
    -8.3148  -8.3148  -8.2625  -8.2625  -8.2625  -8.2625  -8.2623  -8.2623
    -7.9892  -7.9892  -7.9885  -7.9885  -7.9866  -7.9866  -7.8954  -7.8954
    -7.8952  -7.8952  -7.8939  -7.8939  -7.8405  -7.8405  -7.8404  -7.8404
    -7.8404  -7.8404  -7.7564  -7.7564  -7.7563  -7.7563  -7.7562  -7.7562
[...]
    -7.8311  -7.8310  -7.7712  -7.7712  -7.7691  -7.7686  -7.7686  -7.7672
    -7.7590  -7.7590  -7.7540  -7.7539  -7.7500  -7.7455  -7.6746  -7.6734
    -7.6733  -7.6713  -7.6712  -7.6711  -7.4574  -7.4566  -7.3500  -7.3499
    -7.3477  -7.3476  -7.0783  -7.0783  -7.0772  -7.0772  -6.9634  -6.9632
    -0.4180  -0.4179  -0.1516  -0.1516  -0.1513  -0.1512   2.4240   2.4242
     2.4250   2.4253   3.2075   3.2088   4.6230   4.6329   4.8106   4.8109
     4.8221   4.8223   4.9424   4.9426   4.9530   4.9532   5.0954   5.1079
     5.2410   5.2412   5.2593   5.2602   5.2604   5.2852   5.4102   5.4285
     5.4617   5.4619   5.4837   5.4838   5.6059   5.6184   6.5275   6.5277
     6.5340   6.5341   8.4523   8.4526   8.4601   8.4604   8.8904   8.9010

          k = 0.0323 0.0559-0.0000 ( 60513 PWs)   bands (ev):

    -8.3866  -8.3862  -8.3861  -8.3861  -8.3858  -8.3857  -8.2847  -8.2847
    -8.2843  -8.2843  -8.2842  -8.2834  -8.2769  -8.2765  -8.2764  -8.2737
    -8.2737  -8.2736  -8.2581  -8.2579  -8.2579  -8.2561  -8.2560  -8.2560
    -7.8885  -7.8885  -7.8860  -7.8757  -7.8757  -7.8739  -7.8705  -7.8705
    -7.8685  -7.8586  -7.8586  -7.8564  -7.8318  -7.8313  -7.8312  -7.8306
    -7.8302  -7.8301  -7.7749  -7.7748  -7.7726  -7.7725  -7.7697  -7.7680
    -7.7641  -7.7641  -7.7617  -7.7616  -7.7559  -7.7533  -7.6745  -7.6737
    -7.6736  -7.6728  -7.6726  -7.6725  -7.4916  -7.4913  -7.3810  -7.3809
    -7.3796  -7.3795  -7.1037  -7.1037  -7.1031  -7.1031  -6.9884  -6.9883
    -0.4351  -0.4351  -0.1629  -0.1629  -0.1626  -0.1625   2.4192   2.4194
     2.4201   2.4202   3.2514   3.2520   4.8050   4.8122   4.9785   4.9785
     4.9865   4.9865   5.1173   5.1174   5.1260   5.1261   5.1894   5.1943
     5.3084   5.3147   5.3149   5.3259   5.3261   5.3285   5.4790   5.4892
     5.5261   5.5263   5.5405   5.5407   5.5887   5.5971   6.5066   6.5068
     6.5113   6.5115   8.3006   8.3008   8.3047   8.3049   8.7646   8.7715

          k = 0.0215 0.0372-0.0000 ( 60521 PWs)   bands (ev):

    -8.3858  -8.3856  -8.3854  -8.3854  -8.3852  -8.3852  -8.2822  -8.2822
    -8.2819  -8.2819  -8.2813  -8.2808  -8.2750  -8.2748  -8.2748  -8.2738
    -8.2737  -8.2737  -8.2569  -8.2568  -8.2568  -8.2562  -8.2561  -8.2561
    -7.8763  -7.8763  -7.8753  -7.8707  -7.8705  -7.8705  -7.8615  -7.8615
    -7.8586  -7.8559  -7.8559  -7.8537  -7.8310  -7.8309  -7.8308  -7.8302
    -7.8300  -7.8299  -7.7815  -7.7813  -7.7800  -7.7799  -7.7701  -7.7688
    -7.7663  -7.7662  -7.7655  -7.7654  -7.7617  -7.7603  -7.6742  -7.6737
    -7.6736  -7.6736  -7.6734  -7.6733  -7.5173  -7.5172  -7.4038  -7.4037
    -7.4030  -7.4030  -7.1221  -7.1221  -7.1218  -7.1218  -7.0065  -7.0065
    -0.4476  -0.4476  -0.1714  -0.1713  -0.1710  -0.1710   2.4149   2.4150
     2.4156   2.4157   3.2802   3.2804   4.9549   4.9601   5.0932   5.0934
     5.0966   5.0968   5.2436   5.2467   5.2589   5.2591   5.2638   5.2639
     5.3598   5.3704   5.3824   5.3826   5.3867   5.3869   5.5372   5.5419
     5.5713   5.5750   5.5950   5.5951   5.6014   5.6015   6.4738   6.4740
     6.4767   6.4769   8.1765   8.1767   8.1783   8.1785   8.6606   8.6651

          k = 0.0108 0.0186-0.0000 ( 60515 PWs)   bands (ev):

    -8.3854  -8.3853  -8.3850  -8.3849  -8.3849  -8.3848  -8.2804  -8.2804
    -8.2803  -8.2803  -8.2794  -8.2792  -8.2740  -8.2740  -8.2739  -8.2738
    -8.2738  -8.2738  -8.2563  -8.2562  -8.2562  -8.2562  -8.2561  -8.2561
    -7.8692  -7.8692  -7.8691  -7.8685  -7.8684  -7.8683  -7.8512  -7.8510
    -7.8502  -7.8500  -7.8498  -7.8492  -7.8328  -7.8327  -7.8320  -7.8319
    -7.8318  -7.8312  -7.7877  -7.7876  -7.7871  -7.7870  -7.7703  -7.7692
    -7.7671  -7.7670  -7.7669  -7.7668  -7.7664  -7.7655  -7.6739  -7.6738
    -7.6738  -7.6737  -7.6737  -7.6736  -7.5333  -7.5333  -7.4177  -7.4177
    -7.4174  -7.4173  -7.1332  -7.1331  -7.1331  -7.1330  -7.0174  -7.0174
    -0.4553  -0.4553  -0.1766  -0.1766  -0.1762  -0.1762   2.4119   2.4119
     2.4126   2.4127   3.2964   3.2965   5.0605   5.0642   5.1558   5.1561
     5.1563   5.1566   5.2581   5.2613   5.3440   5.3442   5.3453   5.3454
     5.4085   5.4107   5.4327   5.4328   5.4335   5.4337   5.5457   5.5470
     5.5852   5.5857   5.6614   5.6615   5.6626   5.6627   6.4395   6.4398
     6.4409   6.4412   8.0944   8.0946   8.0950   8.0952   8.5918   8.5941

          k = 0.0000 0.0000 0.0000 ( 60559 PWs)   bands (ev):

    -8.3852  -8.3852  -8.3848  -8.3848  -8.3847  -8.3847  -8.2798  -8.2798
    -8.2797  -8.2797  -8.2787  -8.2787  -8.2739  -8.2739  -8.2738  -8.2738
    -8.2738  -8.2738  -8.2562  -8.2562  -8.2561  -8.2561  -8.2561  -8.2561
    -7.8676  -7.8676  -7.8675  -7.8675  -7.8675  -7.8675  -7.8461  -7.8461
    -7.8449  -7.8449  -7.8448  -7.8448  -7.8352  -7.8352  -7.8351  -7.8351
    -7.8328  -7.8328  -7.7901  -7.7901  -7.7900  -7.7900  -7.7697  -7.7697
    -7.7680  -7.7680  -7.7673  -7.7673  -7.7672  -7.7672  -7.6739  -7.6739
    -7.6738  -7.6738  -7.6737  -7.6737  -7.5388  -7.5388  -7.4224  -7.4224
    -7.4221  -7.4221  -7.1368  -7.1368  -7.1368  -7.1368  -7.0211  -7.0211
    -0.4578  -0.4578  -0.1784  -0.1784  -0.1780  -0.1780   2.4109   2.4109
     2.4116   2.4116   3.3016   3.3016   5.1031   5.1031   5.1749   5.1749
     5.1752   5.1752   5.2583   5.2583   5.3707   5.3707   5.3709   5.3709
     5.4303   5.4303   5.4511   5.4511   5.4517   5.4517   5.5350   5.5350
     5.5999   5.5999   5.6909   5.6909   5.6916   5.6916   6.4242   6.4242
     6.4245   6.4245   8.0657   8.0657   8.0659   8.0659   8.5684   8.5684

          k = 0.0000 0.5774 0.0796 ( 60632 PWs)   bands (ev):

    -8.4294  -8.4294  -8.4283  -8.4283  -8.4264  -8.4264  -8.3989  -8.3989
    -8.3968  -8.3968  -8.3961  -8.3961  -8.3156  -8.3156  -8.3150  -8.3150
    -8.3148  -8.3148  -8.2625  -8.2625  -8.2625  -8.2625  -8.2623  -8.2623
    -7.9892  -7.9892  -7.9885  -7.9885  -7.9866  -7.9866  -7.8954  -7.8954
    -7.8952  -7.8952  -7.8939  -7.8939  -7.8405  -7.8405  -7.8404  -7.8404
    -7.8404  -7.8404  -7.7564  -7.7564  -7.7563  -7.7563  -7.7562  -7.7562
    -7.7144  -7.7144  -7.7142  -7.7142  -7.7140  -7.7140  -7.6196  -7.6196
    -7.6195  -7.6195  -7.6193  -7.6193  -5.9726  -5.9726  -5.9292  -5.9292
    -5.9255  -5.9255  -5.8059  -5.8059  -5.8024  -5.8024  -5.7562  -5.7562
    -0.9902  -0.9902  -0.9617  -0.9617  -0.9614  -0.9614   0.0642   0.0642
     0.0657   0.0657   0.1274   0.1274   2.6636   2.6636   2.8028   2.8028
     2.8162   2.8162   3.8469   3.8469   3.8665   3.8665   3.9875   3.9875
     4.1332   4.1332   4.1672   4.1672   4.1851   4.1851   4.2596   4.2596
     4.3135   4.3135   4.3200   4.3200   4.7257   4.7257   4.7455   4.7455
     4.7945   4.7945   7.9231   7.9231   8.0958   8.0958   8.1098   8.1098

          k = 0.0000 0.5774 0.0597 ( 60630 PWs)   bands (ev):

    -8.4297  -8.4291  -8.4287  -8.4278  -8.4266  -8.4262  -8.3989  -8.3987
    -8.3972  -8.3965  -8.3964  -8.3958  -8.3156  -8.3156  -8.3151  -8.3149
    -8.3148  -8.3147  -8.2626  -8.2626  -8.2625  -8.2625  -8.2624  -8.2624
    -7.9894  -7.9889  -7.9888  -7.9881  -7.9868  -7.9866  -7.8956  -7.8954
    -7.8951  -7.8950  -7.8939  -7.8939  -7.8405  -7.8405  -7.8404  -7.8404
    -7.8404  -7.8404  -7.7564  -7.7564  -7.7563  -7.7563  -7.7562  -7.7562
    -7.7145  -7.7144  -7.7143  -7.7142  -7.7140  -7.7140  -7.6196  -7.6196
    -7.6195  -7.6195  -7.6193  -7.6193  -5.9721  -5.9715  -5.9385  -5.9349
    -5.9197  -5.9162  -5.8156  -5.8123  -5.7960  -5.7927  -5.7574  -5.7568
    -0.9896  -0.9896  -0.9666  -0.9664  -0.9573  -0.9572   0.0552   0.0563
     0.0747   0.0763   0.1258   0.1263   2.6642   2.6674   2.7708   2.7849
     2.8345   2.8462   3.8316   3.8491   3.8641   3.8849   3.9765   3.9896
     4.1171   4.1282   4.1320   4.1469   4.2183   4.2430   4.2591   4.2686
     4.2924   4.3008   4.3310   4.3355   4.6845   4.7098   4.7694   4.7835
     4.7837   4.7885   7.9315   7.9362   8.0370   8.0436   8.1468   8.1761

          k = 0.0000 0.5774 0.0398 ( 60654 PWs)   bands (ev):

    -8.4298  -8.4291  -8.4288  -8.4274  -8.4269  -8.4262  -8.3988  -8.3985
    -8.3976  -8.3968  -8.3961  -8.3957  -8.3156  -8.3155  -8.3152  -8.3150
    -8.3148  -8.3146  -8.2626  -8.2626  -8.2625  -8.2625  -8.2624  -8.2624
    -7.9896  -7.9892  -7.9885  -7.9877  -7.9870  -7.9866  -7.8957  -7.8956
    -7.8949  -7.8947  -7.8940  -7.8940  -7.8405  -7.8405  -7.8404  -7.8404
    -7.8404  -7.8404  -7.7564  -7.7564  -7.7563  -7.7563  -7.7562  -7.7562
    -7.7145  -7.7144  -7.7143  -7.7142  -7.7140  -7.7140  -7.6196  -7.6196
    -7.6195  -7.6195  -7.6193  -7.6193  -5.9701  -5.9688  -5.9472  -5.9438
    -5.9108  -5.9078  -5.8243  -5.8214  -5.7867  -5.7836  -5.7603  -5.7591
    -0.9878  -0.9877  -0.9717  -0.9715  -0.9539  -0.9538   0.0482   0.0490
     0.0857   0.0874   0.1217   0.1225   2.6694   2.6755   2.7411   2.7549
     2.8624   2.8712   3.8196   3.8333   3.8827   3.9044   3.9604   3.9811
     4.0762   4.0820   4.1456   4.1685   4.2576   4.2608   4.2664   4.2804
     4.2844   4.2966   4.3439   4.3467   4.6570   4.6867   4.7570   4.7675
     4.8069   4.8163   7.9601   7.9698   7.9869   7.9899   8.1583   8.2009

          k = 0.0000 0.5774 0.0199 ( 60676 PWs)   bands (ev):

    -8.4297  -8.4294  -8.4283  -8.4274  -8.4270  -8.4264  -8.3987  -8.3981
    -8.3980  -8.3972  -8.3959  -8.3956  -8.3155  -8.3154  -8.3153  -8.3151
    -8.3147  -8.3146  -8.2626  -8.2626  -8.2624  -8.2624  -8.2624  -8.2624
    -7.9896  -7.9894  -7.9881  -7.9874  -7.9873  -7.9868  -7.8958  -7.8957
    -7.8946  -7.8945  -7.8942  -7.8941  -7.8405  -7.8405  -7.8404  -7.8404
    -7.8404  -7.8404  -7.7564  -7.7564  -7.7563  -7.7563  -7.7562  -7.7562
    -7.7145  -7.7144  -7.7143  -7.7142  -7.7140  -7.7140  -7.6196  -7.6196
    -7.6195  -7.6195  -7.6193  -7.6193  -5.9664  -5.9645  -5.9548  -5.9519
    -5.9038  -5.9019  -5.8304  -5.8286  -5.7781  -5.7755  -5.7647  -5.7631
    -0.9850  -0.9849  -0.9767  -0.9765  -0.9518  -0.9517   0.0438   0.0442
     0.0966   0.0983   0.1152   0.1164   2.6795   2.6883   2.7155   2.7282
     2.8824   2.8872   3.8127   3.8204   3.9022   3.9248   3.9418   3.9651
     4.0500   4.0522   4.1704   4.1944   4.2325   4.2490   4.2782   4.2861
     4.3034   4.3201   4.3519   4.3533   4.6556   4.6851   4.7197   4.7367
     4.8328   4.8374   7.9539   7.9551   8.0056   8.0210   8.1200   8.1525

          k = 0.0000 0.5774-0.0000 ( 60662 PWs)   bands (ev):

    -8.4296  -8.4296  -8.4278  -8.4278  -8.4266  -8.4266  -8.3984  -8.3984
    -8.3977  -8.3977  -8.3957  -8.3957  -8.3155  -8.3155  -8.3153  -8.3153
    -8.3146  -8.3146  -8.2626  -8.2626  -8.2624  -8.2624  -8.2624  -8.2624
    -7.9895  -7.9895  -7.9877  -7.9877  -7.9870  -7.9870  -7.8958  -7.8958
    -7.8944  -7.8944  -7.8943  -7.8943  -7.8405  -7.8405  -7.8404  -7.8404
    -7.8404  -7.8404  -7.7564  -7.7564  -7.7563  -7.7563  -7.7562  -7.7562
    -7.7145  -7.7145  -7.7142  -7.7142  -7.7140  -7.7140  -7.6196  -7.6196
    -7.6195  -7.6195  -7.6193  -7.6193  -5.9613  -5.9613  -5.9589  -5.9589
    -5.9003  -5.9003  -5.8320  -5.8320  -5.7708  -5.7708  -5.7686  -5.7686
    -0.9812  -0.9812  -0.9810  -0.9810  -0.9510  -0.9510   0.0425   0.0425
     0.1067   0.1067   0.1081   0.1081   2.6948   2.6948   2.7059   2.7059
     2.8912   2.8912   3.8129   3.8129   3.9221   3.9221   3.9454   3.9454
     4.0416   4.0416   4.2009   4.2009   4.2221   4.2221   4.2879   4.2879
     4.3192   4.3192   4.3550   4.3550   4.6810   4.6810   4.7052   4.7052
     4.8433   4.8433   7.9428   7.9428   8.0622   8.0622   8.0847   8.0847

          k = 0.3333 0.5773 0.0796 ( 60624 PWs)   bands (ev):

    -8.4399  -8.4399  -8.4398  -8.4134  -8.4133  -8.4133  -8.4101  -8.4101
    -8.4099  -8.4036  -8.4036  -8.4035  -8.3585  -8.3584  -8.3584  -8.2834
    -8.2834  -8.2834  -8.2411  -8.2410  -8.2409  -8.2357  -8.2355  -8.2355
    -8.0716  -8.0716  -8.0716  -7.9449  -7.9449  -7.9449  -7.9291  -7.9291
    -7.9290  -7.9187  -7.9187  -7.9187  -7.8352  -7.8352  -7.8351  -7.7859
    -7.7858  -7.7858  -7.7559  -7.7558  -7.7558  -7.7554  -7.7554  -7.7553
    -7.7429  -7.7428  -7.7427  -7.7099  -7.7098  -7.7098  -7.6200  -7.6199
    -7.6198  -7.6142  -7.6141  -7.6140  -5.7170  -5.7170  -5.7169  -5.7028
    -5.7028  -5.7027  -5.5972  -5.5971  -5.5970  -5.5921  -5.5920  -5.5919
    -0.8573  -0.8571  -0.8570  -0.8010  -0.8007  -0.8006   0.2523   0.2524
     0.2525   0.3529   0.3530   0.3531   1.8636   1.8637   1.8638   1.9652
     1.9653   1.9654   2.3120   2.3121   2.3122   2.4491   2.4492   2.4493
     3.7160   3.7161   3.7162   3.7449   3.7450   3.7452   4.2227   4.2228
     4.2228   4.3175   4.3176   4.3177   4.6638   4.6639   4.6640   4.7160
     4.7161   4.7161   8.4474   8.4475   8.4476   8.4811   8.4812   8.4813

          k = 0.3333 0.5773 0.0597 ( 60627 PWs)   bands (ev):

    -8.4399  -8.4399  -8.4398  -8.4134  -8.4133  -8.4133  -8.4101  -8.4101
    -8.4099  -8.4036  -8.4036  -8.4035  -8.3585  -8.3584  -8.3584  -8.2834
    -8.2834  -8.2834  -8.2411  -8.2410  -8.2409  -8.2357  -8.2355  -8.2355
    -8.0716  -8.0716  -8.0716  -7.9449  -7.9449  -7.9449  -7.9291  -7.9291
    -7.9290  -7.9187  -7.9187  -7.9187  -7.8352  -7.8352  -7.8351  -7.7859
    -7.7858  -7.7858  -7.7559  -7.7558  -7.7558  -7.7554  -7.7554  -7.7553
    -7.7429  -7.7428  -7.7427  -7.7099  -7.7098  -7.7098  -7.6200  -7.6199
    -7.6198  -7.6142  -7.6141  -7.6140  -5.7170  -5.7170  -5.7169  -5.7028
    -5.7028  -5.7027  -5.5972  -5.5971  -5.5970  -5.5921  -5.5920  -5.5919
    -0.8573  -0.8571  -0.8570  -0.8010  -0.8007  -0.8006   0.2523   0.2524
     0.2525   0.3529   0.3530   0.3531   1.8636   1.8637   1.8637   1.9652
     1.9652   1.9653   2.3121   2.3122   2.3123   2.4492   2.4493   2.4494
     3.7155   3.7157   3.7157   3.7442   3.7443   3.7444   4.2242   4.2242
     4.2243   4.3190   4.3190   4.3191   4.6627   4.6628   4.6629   4.7152
     4.7153   4.7153   8.4491   8.4491   8.4493   8.4832   8.4832   8.4834

          k = 0.3333 0.5773 0.0398 ( 60615 PWs)   bands (ev):

    -8.4399  -8.4399  -8.4398  -8.4134  -8.4133  -8.4133  -8.4101  -8.4101
    -8.4099  -8.4036  -8.4036  -8.4035  -8.3585  -8.3584  -8.3584  -8.2834
    -8.2834  -8.2834  -8.2411  -8.2410  -8.2409  -8.2357  -8.2355  -8.2355
    -8.0716  -8.0716  -8.0716  -7.9449  -7.9449  -7.9449  -7.9291  -7.9291
    -7.9290  -7.9187  -7.9187  -7.9187  -7.8352  -7.8352  -7.8351  -7.7859
    -7.7858  -7.7858  -7.7559  -7.7558  -7.7558  -7.7554  -7.7554  -7.7553
    -7.7429  -7.7428  -7.7427  -7.7099  -7.7098  -7.7098  -7.6200  -7.6199
    -7.6198  -7.6142  -7.6141  -7.6140  -5.7170  -5.7170  -5.7169  -5.7028
    -5.7028  -5.7027  -5.5972  -5.5971  -5.5970  -5.5921  -5.5920  -5.5919
    -0.8573  -0.8571  -0.8570  -0.8010  -0.8007  -0.8006   0.2523   0.2524
     0.2525   0.3529   0.3530   0.3531   1.8635   1.8636   1.8637   1.9651
     1.9651   1.9652   2.3123   2.3124   2.3125   2.4494   2.4495   2.4496
     3.7144   3.7145   3.7146   3.7424   3.7425   3.7426   4.2277   4.2277
     4.2277   4.3225   4.3225   4.3226   4.6599   4.6600   4.6601   4.7132
     4.7133   4.7133   8.4531   8.4532   8.4533   8.4882   8.4883   8.4884

          k = 0.3333 0.5773 0.0199 ( 60630 PWs)   bands (ev):

    -8.4399  -8.4399  -8.4398  -8.4134  -8.4133  -8.4133  -8.4101  -8.4101
    -8.4099  -8.4036  -8.4036  -8.4035  -8.3585  -8.3584  -8.3584  -8.2834
    -8.2834  -8.2834  -8.2411  -8.2410  -8.2409  -8.2357  -8.2355  -8.2355
    -8.0716  -8.0716  -8.0716  -7.9449  -7.9449  -7.9449  -7.9291  -7.9291
    -7.9290  -7.9187  -7.9187  -7.9187  -7.8352  -7.8352  -7.8351  -7.7859
    -7.7858  -7.7858  -7.7559  -7.7558  -7.7558  -7.7554  -7.7554  -7.7553
    -7.7429  -7.7428  -7.7427  -7.7099  -7.7098  -7.7098  -7.6200  -7.6199
    -7.6198  -7.6142  -7.6141  -7.6140  -5.7170  -5.7170  -5.7169  -5.7028
    -5.7028  -5.7027  -5.5972  -5.5971  -5.5970  -5.5921  -5.5920  -5.5919
    -0.8573  -0.8571  -0.8570  -0.8010  -0.8007  -0.8006   0.2523   0.2524
     0.2525   0.3529   0.3530   0.3531   1.8635   1.8635   1.8636   1.9650
     1.9650   1.9651   2.3125   2.3126   2.3127   2.4496   2.4497   2.4498
     3.7133   3.7134   3.7135   3.7406   3.7407   3.7409   4.2311   4.2311
     4.2312   4.3260   4.3260   4.3262   4.6571   4.6572   4.6573   4.7112
     4.7113   4.7113   8.4572   8.4572   8.4574   8.4933   8.4934   8.4935

          k = 0.3333 0.5773-0.0000 ( 60612 PWs)   bands (ev):

    -8.4399  -8.4399  -8.4398  -8.4134  -8.4133  -8.4133  -8.4101  -8.4101
    -8.4099  -8.4036  -8.4036  -8.4035  -8.3585  -8.3584  -8.3584  -8.2834
    -8.2834  -8.2834  -8.2411  -8.2410  -8.2409  -8.2357  -8.2355  -8.2355
    -8.0716  -8.0716  -8.0716  -7.9449  -7.9449  -7.9449  -7.9291  -7.9291
    -7.9290  -7.9187  -7.9187  -7.9186  -7.8352  -7.8352  -7.8351  -7.7859
    -7.7858  -7.7858  -7.7559  -7.7558  -7.7558  -7.7554  -7.7554  -7.7553
    -7.7429  -7.7428  -7.7427  -7.7099  -7.7098  -7.7098  -7.6200  -7.6199
    -7.6198  -7.6142  -7.6141  -7.6140  -5.7170  -5.7170  -5.7169  -5.7028
    -5.7028  -5.7027  -5.5972  -5.5971  -5.5970  -5.5921  -5.5920  -5.5919
    -0.8573  -0.8571  -0.8570  -0.8010  -0.8007  -0.8006   0.2523   0.2524
     0.2525   0.3529   0.3530   0.3531   1.8634   1.8635   1.8635   1.9650
     1.9650   1.9651   2.3126   2.3127   2.3128   2.4497   2.4498   2.4499
     3.7128   3.7129   3.7130   3.7399   3.7400   3.7401   4.2326   4.2326
     4.2327   4.3275   4.3275   4.3276   4.6560   4.6560   4.6562   4.7104
     4.7105   4.7105   8.4589   8.4589   8.4591   8.4955   8.4955   8.4957

     Writing output data file GaSegamma.save
 
     init_run     :      0.87s CPU      1.16s WALL (       1 calls)
     electrons    :   1946.28s CPU   2035.51s WALL (       1 calls)

     Called by init_run:
     wfcinit      :      0.00s CPU      0.00s WALL (       1 calls)
     wfcinit:atom :      0.47s CPU      0.73s WALL (     160 calls)
     wfcinit:wfcr :    121.16s CPU    125.36s WALL (     160 calls)
     potinit      :      0.10s CPU      0.13s WALL (       1 calls)

     Called by electrons:
     c_bands      :   1946.27s CPU   2035.50s WALL (       1 calls)
     v_of_rho     :      0.02s CPU      0.02s WALL (       1 calls)
     v_h          :      0.00s CPU      0.00s WALL (       1 calls)
     v_xc         :      0.02s CPU      0.02s WALL (       1 calls)

     Called by c_bands:
     init_us_2    :      0.44s CPU      0.49s WALL (     160 calls)
     cegterg      :   1797.40s CPU   1879.42s WALL (     321 calls)

     Called by sum_band:

     Called by *egterg:
     h_psi        :   1256.26s CPU   1295.42s WALL (    4302 calls)
     g_psi        :      6.55s CPU      6.55s WALL (    3821 calls)
     cdiaghg      :    247.26s CPU    272.14s WALL (    3981 calls)
     cegterg:over :    166.94s CPU    172.74s WALL (    3821 calls)
     cegterg:upda :    141.03s CPU    151.27s WALL (    3821 calls)
     cegterg:last :     71.20s CPU     73.42s WALL (     801 calls)
     cdiaghg:chol :     12.59s CPU     12.61s WALL (    3981 calls)
     cdiaghg:inve :     11.78s CPU     11.80s WALL (    3981 calls)
     cdiaghg:para :     42.79s CPU     63.18s WALL (    7962 calls)

     Called by h_psi:
     h_psi:pot    :   1249.69s CPU   1288.91s WALL (    4302 calls)
     h_psi:calbec :    121.75s CPU    126.19s WALL (    4302 calls)
     vloc_psi     :   1001.18s CPU   1031.44s WALL (    4302 calls)
     add_vuspsi   :    126.74s CPU    131.26s WALL (    4302 calls)

     General routines
     calbec       :    121.74s CPU    126.18s WALL (    4302 calls)
     fft          :      0.02s CPU      0.02s WALL (      13 calls)
     fftw         :    957.15s CPU    987.54s WALL ( 1214500 calls)
     davcio       :      0.08s CPU      2.35s WALL (     160 calls)
 
     Parallel routines
     fft_scatter  :    566.17s CPU    575.39s WALL ( 1214513 calls)
 
     PWSCF        : 32m28.71s CPU    34m 1.12s WALL

 
   This run was terminated on:  14:40:37   7Apr2022            

=------------------------------------------------------------------------------=
   JOB DONE.
=------------------------------------------------------------------------------=
