
     Program PWSCF v.6.1 (svn rev. 13369) starts on  6Apr2022 at 18:43:23 

     This program is part of the open-source Quantum ESPRESSO suite
     for quantum simulation of materials; please cite
         "P. Giannozzi et al., J. Phys.:Condens. Matter 21 395502 (2009);
          URL http://www.quantum-espresso.org", 
     in publications or presentations arising from this work. More details at
     http://www.quantum-espresso.org/quote

     Parallel version (MPI), running on    48 processors
     R & G space division:  proc/nbgrp/npool/nimage =      48
     Reading input from GaSegamma_relax.in
Warning: card &IONS ignored
Warning: card / ignored
Warning: card &CELL ignored
Warning: card     CELL_DOFREE='ALL' ignored
Warning: card / ignored

     Current dimensions of program PWSCF are:
     Max number of different atomic species (ntypx) = 10
     Max number of k-points (npk) =  40000
     Max angular momentum in pseudopotentials (lmaxx) =  3

     IMPORTANT: XC functional enforced from input :
     Exchange-correlation      = SLA+PW+PSX+PSC ( 1  4 10  8 0 0)
     Any further DFT definition will be discarded
     Please, verify this is what you really want


     Subspace diagonalization in iterative solution of the eigenvalue problem:
     one sub-group per band group will be used
     scalapack distributed-memory algorithm (size of sub-group:  4*  4 procs)

 
     Parallelization info
     --------------------
     sticks:   dense  smooth     PW     G-vecs:    dense   smooth      PW
     Min          43      43     12                10095    10095    1446
     Max          44      44     13                10128    10128    1466
     Sum        2083    2083    583               484939   484939   69933
 


     bravais-lattice index     =            0
     lattice parameter (alat)  =       7.1089  a.u.
     unit-cell volume          =    1954.1947 (a.u.)^3
     number of atoms/cell      =           12
     number of atomic types    =            2
     number of electrons       =       114.00
     number of Kohn-Sham states=          114
     kinetic-energy cutoff     =     150.0000  Ry
     charge density cutoff     =     600.0000  Ry
     convergence threshold     =      7.0E-10
     mixing beta               =       0.7000
     number of iterations used =            8  plain     mixing
     Exchange-correlation      = SLA+PW+PSX+PSC ( 1  4 10  8 0 0)
     Non magnetic calculation with spin-orbit


     celldm(1)=   7.108941  celldm(2)=   0.000000  celldm(3)=   0.000000
     celldm(4)=   0.000000  celldm(5)=   0.000000  celldm(6)=   0.000000

     crystal axes: (cart. coord. in units of alat)
               a(1) = (   1.000000   0.000000   0.000000 )  
               a(2) = (  -0.500000   0.866025   0.000000 )  
               a(3) = (   0.000000   0.000000   6.280909 )  

     reciprocal axes: (cart. coord. in units 2 pi/alat)
               b(1) = (  1.000000  0.577350 -0.000000 )  
               b(2) = (  0.000000  1.154701 -0.000000 )  
               b(3) = (  0.000000  0.000000  0.159213 )  


     PseudoPot. # 1 for Ga read from file:
     /home/mclaro/pseudo/ONCVPSP/sg15/Ga_ONCV_PBE_fr.upf
     MD5 check sum: 291fdaf421ec3a7833e0cf5917f67014
     Pseudo is Norm-conserving, Zval = 13.0
     Generated using ONCVPSP code by D. R. Hamann
     Using radial grid of 1926 points, 10 beta functions with: 
                l(1) =   0
                l(2) =   0
                l(3) =   1
                l(4) =   1
                l(5) =   1
                l(6) =   1
                l(7) =   2
                l(8) =   2
                l(9) =   2
               l(10) =   2

     PseudoPot. # 2 for Se read from file:
     /home/mclaro/pseudo/ONCVPSP/sg15/Se_ONCV_PBE_fr.upf
     MD5 check sum: cfe1483cd39788255e734f67871220b5
     Pseudo is Norm-conserving, Zval =  6.0
     Generated using ONCVPSP code by D. R. Hamann
     Using radial grid of 1214 points, 10 beta functions with: 
                l(1) =   0
                l(2) =   0
                l(3) =   1
                l(4) =   1
                l(5) =   1
                l(6) =   1
                l(7) =   2
                l(8) =   2
                l(9) =   2
               l(10) =   2

     atomic species   valence    mass     pseudopotential
        Ga            13.00    69.72300     Ga( 1.00)
        Se             6.00    78.96000     Se( 1.00)

      6 Sym. Ops. (no inversion) found


                                    s                        frac. trans.

      isym =  1     identity                                     

 cryst.   s( 1) = (     1          0          0      )
                  (     0          1          0      )
                  (     0          0          1      )

 cart.    s( 1) = (  1.0000000  0.0000000  0.0000000 )
                  (  0.0000000  1.0000000  0.0000000 )
                  (  0.0000000  0.0000000  1.0000000 )


      isym =  2     120 deg rotation - cryst. axis [0,0,1]       

 cryst.   s( 2) = (     0          1          0      )
                  (    -1         -1          0      )
                  (     0          0          1      )

 cart.    s( 2) = ( -0.5000000 -0.8660254  0.0000000 )
                  (  0.8660254 -0.5000000  0.0000000 )
                  (  0.0000000  0.0000000  1.0000000 )


      isym =  3     120 deg rotation - cryst. axis [0,0,-1]      

 cryst.   s( 3) = (    -1         -1          0      )
                  (     1          0          0      )
                  (     0          0          1      )

 cart.    s( 3) = ( -0.5000000  0.8660254  0.0000000 )
                  ( -0.8660254 -0.5000000  0.0000000 )
                  (  0.0000000  0.0000000  1.0000000 )


      isym =  4     inv. 180 deg rotation - cart. axis [1,0,0]   

 cryst.   s( 4) = (    -1          0          0      )
                  (     1          1          0      )
                  (     0          0          1      )

 cart.    s( 4) = ( -1.0000000  0.0000000  0.0000000 )
                  (  0.0000000  1.0000000  0.0000000 )
                  (  0.0000000  0.0000000  1.0000000 )


      isym =  5     inv. 180 deg rotation - cryst. axis [0,1,0]  

 cryst.   s( 5) = (     1          1          0      )
                  (     0         -1          0      )
                  (     0          0          1      )

 cart.    s( 5) = (  0.5000000  0.8660254 -0.0000000 )
                  (  0.8660254 -0.5000000  0.0000000 )
                  (  0.0000000  0.0000000  1.0000000 )


      isym =  6     inv. 180 deg rotation - cryst. axis [1,1,0]  

 cryst.   s( 6) = (     0         -1          0      )
                  (    -1          0          0      )
                  (     0          0          1      )

 cart.    s( 6) = (  0.5000000 -0.8660254  0.0000000 )
                  ( -0.8660254 -0.5000000  0.0000000 )
                  (  0.0000000  0.0000000  1.0000000 )


   Cartesian axes

     site n.     atom                  positions (alat units)
         1           Se  tau(   1) = (   0.0000000   0.0000000   1.4775656  )
         2           Se  tau(   2) = (  -0.0000000   0.5773503   0.6141142  )
         3           Se  tau(   3) = (   0.5000000   0.2886751   3.5710424  )
         4           Se  tau(   4) = (   0.0000000   0.0000000   2.7079017  )
         5           Se  tau(   5) = (  -0.0000000   0.5773503   5.6647571  )
         6           Se  tau(   6) = (   0.5000000   0.2886751   4.8014162  )
         7           Ga  tau(   7) = (   0.5000000   0.2886751   1.7799971  )
         8           Ga  tau(   8) = (   0.0000000   0.0000000   0.3114708  )
         9           Ga  tau(   9) = (  -0.0000000   0.5773503   3.8734441  )
        10           Ga  tau(  10) = (   0.5000000   0.2886751   2.4052795  )
        11           Ga  tau(  11) = (   0.0000000   0.0000000   5.9671470  )
        12           Ga  tau(  12) = (  -0.0000000   0.5773503   4.4987545  )

   Crystallographic axes

     site n.     atom                  positions (cryst. coord.)
         1           Se  tau(   1) = ( -0.0000000  0.0000000  0.2352471  )
         2           Se  tau(   2) = (  0.3333333  0.6666667  0.0977747  )
         3           Se  tau(   3) = (  0.6666667  0.3333333  0.5685551  )
         4           Se  tau(   4) = ( -0.0000000  0.0000000  0.4311322  )
         5           Se  tau(   5) = (  0.3333333  0.6666667  0.9019009  )
         6           Se  tau(   6) = (  0.6666667  0.3333333  0.7644461  )
         7           Ga  tau(   7) = (  0.6666667  0.3333333  0.2833980  )
         8           Ga  tau(   8) = (  0.0000000  0.0000000  0.0495901  )
         9           Ga  tau(   9) = (  0.3333333  0.6666667  0.6167012  )
        10           Ga  tau(  10) = (  0.6666667  0.3333333  0.3829509  )
        11           Ga  tau(  11) = ( -0.0000000  0.0000000  0.9500452  )
        12           Ga  tau(  12) = (  0.3333333  0.6666667  0.7162585  )

     number of k points=   119
                       cart. coord. in units 2pi/alat
        k(    1) = (   0.0000000   0.0000000   0.0000000), wk =   0.0008889
        k(    2) = (   0.0000000   0.0000000   0.0318425), wk =   0.0017778
        k(    3) = (   0.0000000   0.0000000   0.0636851), wk =   0.0017778
        k(    4) = (   0.0000000   0.0769800  -0.0000000), wk =   0.0053333
        k(    5) = (   0.0000000   0.0769800   0.0318425), wk =   0.0053333
        k(    6) = (   0.0000000   0.0769800   0.0636851), wk =   0.0053333
        k(    7) = (   0.0000000   0.1539601  -0.0000000), wk =   0.0053333
        k(    8) = (   0.0000000   0.1539601   0.0318425), wk =   0.0053333
        k(    9) = (   0.0000000   0.1539601   0.0636851), wk =   0.0053333
        k(   10) = (   0.0000000   0.2309401  -0.0000000), wk =   0.0053333
        k(   11) = (   0.0000000   0.2309401   0.0318425), wk =   0.0053333
        k(   12) = (   0.0000000   0.2309401   0.0636851), wk =   0.0053333
        k(   13) = (   0.0000000   0.3079201  -0.0000000), wk =   0.0053333
        k(   14) = (   0.0000000   0.3079201   0.0318425), wk =   0.0053333
        k(   15) = (   0.0000000   0.3079201   0.0636851), wk =   0.0053333
        k(   16) = (   0.0000000   0.3849002  -0.0000000), wk =   0.0053333
        k(   17) = (   0.0000000   0.3849002   0.0318425), wk =   0.0053333
        k(   18) = (   0.0000000   0.3849002   0.0636851), wk =   0.0053333
        k(   19) = (   0.0000000   0.4618802  -0.0000000), wk =   0.0053333
        k(   20) = (   0.0000000   0.4618802   0.0318425), wk =   0.0053333
        k(   21) = (   0.0000000   0.4618802   0.0636851), wk =   0.0053333
        k(   22) = (   0.0000000   0.5388603  -0.0000000), wk =   0.0053333
        k(   23) = (   0.0000000   0.5388603   0.0318425), wk =   0.0053333
        k(   24) = (   0.0000000   0.5388603   0.0636851), wk =   0.0053333
        k(   25) = (   0.0666667   0.1154701  -0.0000000), wk =   0.0053333
        k(   26) = (   0.0666667   0.1154701   0.0318425), wk =   0.0106667
        k(   27) = (   0.0666667   0.1154701   0.0636851), wk =   0.0106667
        k(   28) = (   0.0666667   0.1924501  -0.0000000), wk =   0.0106667
        k(   29) = (   0.0666667   0.1924501   0.0318425), wk =   0.0106667
        k(   30) = (   0.0666667   0.1924501   0.0636851), wk =   0.0106667
        k(   31) = (   0.0666667   0.2694301  -0.0000000), wk =   0.0106667
        k(   32) = (   0.0666667   0.2694301   0.0318425), wk =   0.0106667
        k(   33) = (   0.0666667   0.2694301   0.0636851), wk =   0.0106667
        k(   34) = (   0.0666667   0.3464102  -0.0000000), wk =   0.0106667
        k(   35) = (   0.0666667   0.3464102   0.0318425), wk =   0.0106667
        k(   36) = (   0.0666667   0.3464102   0.0636851), wk =   0.0106667
        k(   37) = (   0.0666667   0.4233902  -0.0000000), wk =   0.0106667
        k(   38) = (   0.0666667   0.4233902   0.0318425), wk =   0.0106667
        k(   39) = (   0.0666667   0.4233902   0.0636851), wk =   0.0106667
        k(   40) = (   0.0666667   0.5003702  -0.0000000), wk =   0.0106667
        k(   41) = (   0.0666667   0.5003702   0.0318425), wk =   0.0106667
        k(   42) = (   0.0666667   0.5003702   0.0636851), wk =   0.0106667
        k(   43) = (   0.0666667   0.5773503  -0.0000000), wk =   0.0053333
        k(   44) = (   0.0666667   0.5773503   0.0318425), wk =   0.0106667
        k(   45) = (   0.0666667   0.5773503   0.0636851), wk =   0.0106667
        k(   46) = (   0.1333333   0.2309401  -0.0000000), wk =   0.0053333
        k(   47) = (   0.1333333   0.2309401   0.0318425), wk =   0.0106667
        k(   48) = (   0.1333333   0.2309401   0.0636851), wk =   0.0106667
        k(   49) = (   0.1333333   0.3079201  -0.0000000), wk =   0.0106667
        k(   50) = (   0.1333333   0.3079201   0.0318425), wk =   0.0106667
        k(   51) = (   0.1333333   0.3079201   0.0636851), wk =   0.0106667
        k(   52) = (   0.1333333   0.3849002  -0.0000000), wk =   0.0106667
        k(   53) = (   0.1333333   0.3849002   0.0318425), wk =   0.0106667
        k(   54) = (   0.1333333   0.3849002   0.0636851), wk =   0.0106667
        k(   55) = (   0.1333333   0.4618802  -0.0000000), wk =   0.0106667
        k(   56) = (   0.1333333   0.4618802   0.0318425), wk =   0.0106667
        k(   57) = (   0.1333333   0.4618802   0.0636851), wk =   0.0106667
        k(   58) = (   0.1333333   0.5388603  -0.0000000), wk =   0.0106667
        k(   59) = (   0.1333333   0.5388603   0.0318425), wk =   0.0106667
        k(   60) = (   0.1333333   0.5388603   0.0636851), wk =   0.0106667
        k(   61) = (   0.2000000   0.3464102  -0.0000000), wk =   0.0053333
        k(   62) = (   0.2000000   0.3464102   0.0318425), wk =   0.0106667
        k(   63) = (   0.2000000   0.3464102   0.0636851), wk =   0.0106667
        k(   64) = (   0.2000000   0.4233902  -0.0000000), wk =   0.0106667
        k(   65) = (   0.2000000   0.4233902   0.0318425), wk =   0.0106667
        k(   66) = (   0.2000000   0.4233902   0.0636851), wk =   0.0106667
        k(   67) = (   0.2000000   0.5003702  -0.0000000), wk =   0.0106667
        k(   68) = (   0.2000000   0.5003702   0.0318425), wk =   0.0106667
        k(   69) = (   0.2000000   0.5003702   0.0636851), wk =   0.0106667
        k(   70) = (   0.2000000   0.5773503  -0.0000000), wk =   0.0053333
        k(   71) = (   0.2000000   0.5773503   0.0318425), wk =   0.0106667
        k(   72) = (   0.2000000   0.5773503   0.0636851), wk =   0.0106667
        k(   73) = (   0.2666667   0.4618802  -0.0000000), wk =   0.0053333
        k(   74) = (   0.2666667   0.4618802   0.0318425), wk =   0.0106667
        k(   75) = (   0.2666667   0.4618802   0.0636851), wk =   0.0106667
        k(   76) = (   0.2666667   0.5388603  -0.0000000), wk =   0.0106667
        k(   77) = (   0.2666667   0.5388603   0.0318425), wk =   0.0106667
        k(   78) = (   0.2666667   0.5388603   0.0636851), wk =   0.0106667
        k(   79) = (   0.3333333   0.5773503  -0.0000000), wk =   0.0017778
        k(   80) = (   0.3333333   0.5773503   0.0318425), wk =   0.0035556
        k(   81) = (   0.3333333   0.5773503   0.0636851), wk =   0.0035556
        k(   82) = (   0.0000000  -0.0769800   0.0318425), wk =   0.0053333
        k(   83) = (   0.0000000  -0.0769800   0.0636851), wk =   0.0053333
        k(   84) = (   0.0000000  -0.1539601   0.0318425), wk =   0.0053333
        k(   85) = (   0.0000000  -0.1539601   0.0636851), wk =   0.0053333
        k(   86) = (   0.0000000  -0.2309401   0.0318425), wk =   0.0053333
        k(   87) = (   0.0000000  -0.2309401   0.0636851), wk =   0.0053333
        k(   88) = (   0.0000000  -0.3079201   0.0318425), wk =   0.0053333
        k(   89) = (   0.0000000  -0.3079201   0.0636851), wk =   0.0053333
        k(   90) = (   0.0000000  -0.3849002   0.0318425), wk =   0.0053333
        k(   91) = (   0.0000000  -0.3849002   0.0636851), wk =   0.0053333
        k(   92) = (   0.0000000  -0.4618802   0.0318425), wk =   0.0053333
        k(   93) = (   0.0000000  -0.4618802   0.0636851), wk =   0.0053333
        k(   94) = (   0.0000000  -0.5388603   0.0318425), wk =   0.0053333
        k(   95) = (   0.0000000  -0.5388603   0.0636851), wk =   0.0053333
        k(   96) = (  -0.0666667  -0.1924501   0.0318425), wk =   0.0106667
        k(   97) = (  -0.0666667  -0.1924501   0.0636851), wk =   0.0106667
        k(   98) = (  -0.0666667  -0.2694301   0.0318425), wk =   0.0106667
        k(   99) = (  -0.0666667  -0.2694301   0.0636851), wk =   0.0106667
        k(  100) = (  -0.0666667  -0.3464102   0.0318425), wk =   0.0106667
        k(  101) = (  -0.0666667  -0.3464102   0.0636851), wk =   0.0106667
        k(  102) = (  -0.0666667  -0.4233902   0.0318425), wk =   0.0106667
        k(  103) = (  -0.0666667  -0.4233902   0.0636851), wk =   0.0106667
        k(  104) = (  -0.0666667  -0.5003702   0.0318425), wk =   0.0106667
        k(  105) = (  -0.0666667  -0.5003702   0.0636851), wk =   0.0106667
        k(  106) = (  -0.1333333  -0.3079201   0.0318425), wk =   0.0106667
        k(  107) = (  -0.1333333  -0.3079201   0.0636851), wk =   0.0106667
        k(  108) = (  -0.1333333  -0.3849002   0.0318425), wk =   0.0106667
        k(  109) = (  -0.1333333  -0.3849002   0.0636851), wk =   0.0106667
        k(  110) = (  -0.1333333  -0.4618802   0.0318425), wk =   0.0106667
        k(  111) = (  -0.1333333  -0.4618802   0.0636851), wk =   0.0106667
        k(  112) = (  -0.1333333  -0.5388603   0.0318425), wk =   0.0106667
        k(  113) = (  -0.1333333  -0.5388603   0.0636851), wk =   0.0106667
        k(  114) = (  -0.2000000  -0.4233902   0.0318425), wk =   0.0106667
        k(  115) = (  -0.2000000  -0.4233902   0.0636851), wk =   0.0106667
        k(  116) = (  -0.2000000  -0.5003702   0.0318425), wk =   0.0106667
        k(  117) = (  -0.2000000  -0.5003702   0.0636851), wk =   0.0106667
        k(  118) = (  -0.2666667  -0.5388603   0.0318425), wk =   0.0106667
        k(  119) = (  -0.2666667  -0.5388603   0.0636851), wk =   0.0106667

                       cryst. coord.
        k(    1) = (   0.0000000   0.0000000   0.0000000), wk =   0.0008889
        k(    2) = (   0.0000000   0.0000000   0.2000000), wk =   0.0017778
        k(    3) = (   0.0000000   0.0000000   0.4000000), wk =   0.0017778
        k(    4) = (   0.0000000   0.0666667   0.0000000), wk =   0.0053333
        k(    5) = (   0.0000000   0.0666667   0.2000000), wk =   0.0053333
        k(    6) = (   0.0000000   0.0666667   0.4000000), wk =   0.0053333
        k(    7) = (   0.0000000   0.1333333   0.0000000), wk =   0.0053333
        k(    8) = (   0.0000000   0.1333333   0.2000000), wk =   0.0053333
        k(    9) = (   0.0000000   0.1333333   0.4000000), wk =   0.0053333
        k(   10) = (   0.0000000   0.2000000   0.0000000), wk =   0.0053333
        k(   11) = (   0.0000000   0.2000000   0.2000000), wk =   0.0053333
        k(   12) = (   0.0000000   0.2000000   0.4000000), wk =   0.0053333
        k(   13) = (   0.0000000   0.2666667   0.0000000), wk =   0.0053333
        k(   14) = (   0.0000000   0.2666667   0.2000000), wk =   0.0053333
        k(   15) = (   0.0000000   0.2666667   0.4000000), wk =   0.0053333
        k(   16) = (   0.0000000   0.3333333   0.0000000), wk =   0.0053333
        k(   17) = (   0.0000000   0.3333333   0.2000000), wk =   0.0053333
        k(   18) = (   0.0000000   0.3333333   0.4000000), wk =   0.0053333
        k(   19) = (   0.0000000   0.4000000   0.0000000), wk =   0.0053333
        k(   20) = (   0.0000000   0.4000000   0.2000000), wk =   0.0053333
        k(   21) = (   0.0000000   0.4000000   0.4000000), wk =   0.0053333
        k(   22) = (   0.0000000   0.4666667  -0.0000000), wk =   0.0053333
        k(   23) = (   0.0000000   0.4666667   0.2000000), wk =   0.0053333
        k(   24) = (   0.0000000   0.4666667   0.4000000), wk =   0.0053333
        k(   25) = (   0.0666667   0.0666667   0.0000000), wk =   0.0053333
        k(   26) = (   0.0666667   0.0666667   0.2000000), wk =   0.0106667
        k(   27) = (   0.0666667   0.0666667   0.4000000), wk =   0.0106667
        k(   28) = (   0.0666667   0.1333333   0.0000000), wk =   0.0106667
        k(   29) = (   0.0666667   0.1333333   0.2000000), wk =   0.0106667
        k(   30) = (   0.0666667   0.1333333   0.4000000), wk =   0.0106667
        k(   31) = (   0.0666667   0.2000000  -0.0000000), wk =   0.0106667
        k(   32) = (   0.0666667   0.2000000   0.2000000), wk =   0.0106667
        k(   33) = (   0.0666667   0.2000000   0.4000000), wk =   0.0106667
        k(   34) = (   0.0666667   0.2666667   0.0000000), wk =   0.0106667
        k(   35) = (   0.0666667   0.2666667   0.2000000), wk =   0.0106667
        k(   36) = (   0.0666667   0.2666667   0.4000000), wk =   0.0106667
        k(   37) = (   0.0666667   0.3333333   0.0000000), wk =   0.0106667
        k(   38) = (   0.0666667   0.3333333   0.2000000), wk =   0.0106667
        k(   39) = (   0.0666667   0.3333333   0.4000000), wk =   0.0106667
        k(   40) = (   0.0666667   0.4000000   0.0000000), wk =   0.0106667
        k(   41) = (   0.0666667   0.4000000   0.2000000), wk =   0.0106667
        k(   42) = (   0.0666667   0.4000000   0.4000000), wk =   0.0106667
        k(   43) = (   0.0666667   0.4666667  -0.0000000), wk =   0.0053333
        k(   44) = (   0.0666667   0.4666667   0.2000000), wk =   0.0106667
        k(   45) = (   0.0666667   0.4666667   0.4000000), wk =   0.0106667
        k(   46) = (   0.1333333   0.1333333   0.0000000), wk =   0.0053333
        k(   47) = (   0.1333333   0.1333333   0.2000000), wk =   0.0106667
        k(   48) = (   0.1333333   0.1333333   0.4000000), wk =   0.0106667
        k(   49) = (   0.1333333   0.2000000   0.0000000), wk =   0.0106667
        k(   50) = (   0.1333333   0.2000000   0.2000000), wk =   0.0106667
        k(   51) = (   0.1333333   0.2000000   0.4000000), wk =   0.0106667
        k(   52) = (   0.1333333   0.2666667   0.0000000), wk =   0.0106667
        k(   53) = (   0.1333333   0.2666667   0.2000000), wk =   0.0106667
        k(   54) = (   0.1333333   0.2666667   0.4000000), wk =   0.0106667
        k(   55) = (   0.1333333   0.3333333   0.0000000), wk =   0.0106667
        k(   56) = (   0.1333333   0.3333333   0.2000000), wk =   0.0106667
        k(   57) = (   0.1333333   0.3333333   0.4000000), wk =   0.0106667
        k(   58) = (   0.1333333   0.4000000  -0.0000000), wk =   0.0106667
        k(   59) = (   0.1333333   0.4000000   0.2000000), wk =   0.0106667
        k(   60) = (   0.1333333   0.4000000   0.4000000), wk =   0.0106667
        k(   61) = (   0.2000000   0.2000000   0.0000000), wk =   0.0053333
        k(   62) = (   0.2000000   0.2000000   0.2000000), wk =   0.0106667
        k(   63) = (   0.2000000   0.2000000   0.4000000), wk =   0.0106667
        k(   64) = (   0.2000000   0.2666667   0.0000000), wk =   0.0106667
        k(   65) = (   0.2000000   0.2666667   0.2000000), wk =   0.0106667
        k(   66) = (   0.2000000   0.2666667   0.4000000), wk =   0.0106667
        k(   67) = (   0.2000000   0.3333333  -0.0000000), wk =   0.0106667
        k(   68) = (   0.2000000   0.3333333   0.2000000), wk =   0.0106667
        k(   69) = (   0.2000000   0.3333333   0.4000000), wk =   0.0106667
        k(   70) = (   0.2000000   0.4000000  -0.0000000), wk =   0.0053333
        k(   71) = (   0.2000000   0.4000000   0.2000000), wk =   0.0106667
        k(   72) = (   0.2000000   0.4000000   0.4000000), wk =   0.0106667
        k(   73) = (   0.2666667   0.2666667   0.0000000), wk =   0.0053333
        k(   74) = (   0.2666667   0.2666667   0.2000000), wk =   0.0106667
        k(   75) = (   0.2666667   0.2666667   0.4000000), wk =   0.0106667
        k(   76) = (   0.2666667   0.3333333   0.0000000), wk =   0.0106667
        k(   77) = (   0.2666667   0.3333333   0.2000000), wk =   0.0106667
        k(   78) = (   0.2666667   0.3333333   0.4000000), wk =   0.0106667
        k(   79) = (   0.3333333   0.3333333   0.0000000), wk =   0.0017778
        k(   80) = (   0.3333333   0.3333333   0.2000000), wk =   0.0035556
        k(   81) = (   0.3333333   0.3333333   0.4000000), wk =   0.0035556
        k(   82) = (   0.0000000  -0.0666667   0.2000000), wk =   0.0053333
        k(   83) = (   0.0000000  -0.0666667   0.4000000), wk =   0.0053333
        k(   84) = (   0.0000000  -0.1333333   0.2000000), wk =   0.0053333
        k(   85) = (   0.0000000  -0.1333333   0.4000000), wk =   0.0053333
        k(   86) = (   0.0000000  -0.2000000   0.2000000), wk =   0.0053333
        k(   87) = (   0.0000000  -0.2000000   0.4000000), wk =   0.0053333
        k(   88) = (   0.0000000  -0.2666667   0.2000000), wk =   0.0053333
        k(   89) = (   0.0000000  -0.2666667   0.4000000), wk =   0.0053333
        k(   90) = (   0.0000000  -0.3333333   0.2000000), wk =   0.0053333
        k(   91) = (   0.0000000  -0.3333333   0.4000000), wk =   0.0053333
        k(   92) = (   0.0000000  -0.4000000   0.2000000), wk =   0.0053333
        k(   93) = (   0.0000000  -0.4000000   0.4000000), wk =   0.0053333
        k(   94) = (   0.0000000  -0.4666667   0.2000000), wk =   0.0053333
        k(   95) = (   0.0000000  -0.4666667   0.4000000), wk =   0.0053333
        k(   96) = (  -0.0666667  -0.1333333   0.2000000), wk =   0.0106667
        k(   97) = (  -0.0666667  -0.1333333   0.4000000), wk =   0.0106667
        k(   98) = (  -0.0666667  -0.2000000   0.2000000), wk =   0.0106667
        k(   99) = (  -0.0666667  -0.2000000   0.4000000), wk =   0.0106667
        k(  100) = (  -0.0666667  -0.2666667   0.2000000), wk =   0.0106667
        k(  101) = (  -0.0666667  -0.2666667   0.4000000), wk =   0.0106667
        k(  102) = (  -0.0666667  -0.3333333   0.2000000), wk =   0.0106667
        k(  103) = (  -0.0666667  -0.3333333   0.4000000), wk =   0.0106667
        k(  104) = (  -0.0666667  -0.4000000   0.2000000), wk =   0.0106667
        k(  105) = (  -0.0666667  -0.4000000   0.4000000), wk =   0.0106667
        k(  106) = (  -0.1333333  -0.2000000   0.2000000), wk =   0.0106667
        k(  107) = (  -0.1333333  -0.2000000   0.4000000), wk =   0.0106667
        k(  108) = (  -0.1333333  -0.2666667   0.2000000), wk =   0.0106667
        k(  109) = (  -0.1333333  -0.2666667   0.4000000), wk =   0.0106667
        k(  110) = (  -0.1333333  -0.3333333   0.2000000), wk =   0.0106667
        k(  111) = (  -0.1333333  -0.3333333   0.4000000), wk =   0.0106667
        k(  112) = (  -0.1333333  -0.4000000   0.2000000), wk =   0.0106667
        k(  113) = (  -0.1333333  -0.4000000   0.4000000), wk =   0.0106667
        k(  114) = (  -0.2000000  -0.2666667   0.2000000), wk =   0.0106667
        k(  115) = (  -0.2000000  -0.2666667   0.4000000), wk =   0.0106667
        k(  116) = (  -0.2000000  -0.3333333   0.2000000), wk =   0.0106667
        k(  117) = (  -0.2000000  -0.3333333   0.4000000), wk =   0.0106667
        k(  118) = (  -0.2666667  -0.3333333   0.2000000), wk =   0.0106667
        k(  119) = (  -0.2666667  -0.3333333   0.4000000), wk =   0.0106667

     Dense  grid:   484939 G-vectors     FFT dimensions: (  60,  60, 360)

     Estimated max dynamical RAM per process >     573.25MB

     Estimated total allocated dynamical RAM >   27516.19MB

     Initial potential from superposition of free atoms

     starting charge  113.98348, renormalised to  114.00000
     Starting wfc are  156 randomized atomic wfcs

     total cpu time spent up to now is       92.4 secs

     Self-consistent Calculation

     iteration #  1     ecut=   150.00 Ry     beta=0.70
     Davidson diagonalization with overlap
     ethr =  1.00E-02,  avg # of iterations =  2.0

     Threshold (ethr) on eigenvalues was too large:
     Diagonalizing with lowered threshold

     Davidson diagonalization with overlap
     ethr =  2.10E-04,  avg # of iterations =  2.5

     total cpu time spent up to now is      543.0 secs

     total energy              =    -899.41016506 Ry
     Harris-Foulkes estimate   =    -899.52940374 Ry
     estimated scf accuracy    <       0.23082210 Ry

     iteration #  2     ecut=   150.00 Ry     beta=0.70
     Davidson diagonalization with overlap
     ethr =  2.02E-04,  avg # of iterations =  3.0

     total cpu time spent up to now is      832.5 secs

     total energy              =    -899.44724714 Ry
     Harris-Foulkes estimate   =    -899.47499772 Ry
     estimated scf accuracy    <       0.04735361 Ry

     iteration #  3     ecut=   150.00 Ry     beta=0.70
     Davidson diagonalization with overlap
     ethr =  4.15E-05,  avg # of iterations =  3.0

     total cpu time spent up to now is     1095.7 secs

     total energy              =    -899.45360081 Ry
     Harris-Foulkes estimate   =    -899.46457439 Ry
     estimated scf accuracy    <       0.02083627 Ry

     iteration #  4     ecut=   150.00 Ry     beta=0.70
     Davidson diagonalization with overlap
     ethr =  1.83E-05,  avg # of iterations =  3.0

     total cpu time spent up to now is     1350.6 secs

     total energy              =    -899.45847797 Ry
     Harris-Foulkes estimate   =    -899.46292340 Ry
     estimated scf accuracy    <       0.01211811 Ry

     iteration #  5     ecut=   150.00 Ry     beta=0.70
     Davidson diagonalization with overlap
     ethr =  1.06E-05,  avg # of iterations =  2.0

     total cpu time spent up to now is     1573.8 secs

     total energy              =    -899.46053204 Ry
     Harris-Foulkes estimate   =    -899.46056337 Ry
     estimated scf accuracy    <       0.00005895 Ry

     iteration #  6     ecut=   150.00 Ry     beta=0.70
     Davidson diagonalization with overlap
     ethr =  5.17E-08,  avg # of iterations =  4.5

     total cpu time spent up to now is     1919.5 secs

     total energy              =    -899.46056018 Ry
     Harris-Foulkes estimate   =    -899.46062518 Ry
     estimated scf accuracy    <       0.00026776 Ry

     iteration #  7     ecut=   150.00 Ry     beta=0.70
     Davidson diagonalization with overlap
     ethr =  5.17E-08,  avg # of iterations =  4.2

     total cpu time spent up to now is     2170.3 secs

     total energy              =    -899.46059039 Ry
     Harris-Foulkes estimate   =    -899.46059664 Ry
     estimated scf accuracy    <       0.00002138 Ry

     iteration #  8     ecut=   150.00 Ry     beta=0.70
     Davidson diagonalization with overlap
     ethr =  1.88E-08,  avg # of iterations =  3.3

     total cpu time spent up to now is     2401.2 secs

     total energy              =    -899.46059342 Ry
     Harris-Foulkes estimate   =    -899.46059356 Ry
     estimated scf accuracy    <       0.00000034 Ry

     iteration #  9     ecut=   150.00 Ry     beta=0.70
     Davidson diagonalization with overlap
     ethr =  2.96E-10,  avg # of iterations =  3.9

     total cpu time spent up to now is     2719.9 secs

     total energy              =    -899.46059350 Ry
     Harris-Foulkes estimate   =    -899.46059364 Ry
     estimated scf accuracy    <       0.00000034 Ry

     iteration # 10     ecut=   150.00 Ry     beta=0.70
     Davidson diagonalization with overlap
     ethr =  2.96E-10,  avg # of iterations =  3.3

     total cpu time spent up to now is     2951.8 secs

     total energy              =    -899.46059356 Ry
     Harris-Foulkes estimate   =    -899.46059360 Ry
     estimated scf accuracy    <       0.00000010 Ry

     iteration # 11     ecut=   150.00 Ry     beta=0.70
     Davidson diagonalization with overlap
     ethr =  8.43E-11,  avg # of iterations =  4.1

     total cpu time spent up to now is     3192.5 secs

     total energy              =    -899.46059357 Ry
     Harris-Foulkes estimate   =    -899.46059360 Ry
     estimated scf accuracy    <       0.00000009 Ry

     iteration # 12     ecut=   150.00 Ry     beta=0.70
     Davidson diagonalization with overlap
     ethr =  7.53E-11,  avg # of iterations =  3.9

     total cpu time spent up to now is     3424.8 secs

     total energy              =    -899.46059358 Ry
     Harris-Foulkes estimate   =    -899.46059359 Ry
     estimated scf accuracy    <       0.00000001 Ry

     iteration # 13     ecut=   150.00 Ry     beta=0.70
     Davidson diagonalization with overlap
     ethr =  1.29E-11,  avg # of iterations =  3.7

     total cpu time spent up to now is     3652.8 secs

     End of self-consistent calculation

          k = 0.0000 0.0000 0.0000 ( 60559 PWs)   bands (ev):

    -8.3852  -8.3852  -8.3848  -8.3848  -8.3847  -8.3847  -8.2797  -8.2797
    -8.2797  -8.2797  -8.2786  -8.2786  -8.2738  -8.2738  -8.2737  -8.2737
    -8.2737  -8.2737  -8.2561  -8.2561  -8.2561  -8.2561  -8.2561  -8.2561
    -7.8675  -7.8675  -7.8675  -7.8675  -7.8674  -7.8674  -7.8461  -7.8461
    -7.8448  -7.8448  -7.8448  -7.8448  -7.8351  -7.8351  -7.8351  -7.8351
    -7.8328  -7.8328  -7.7901  -7.7901  -7.7900  -7.7900  -7.7696  -7.7696
    -7.7680  -7.7680  -7.7672  -7.7672  -7.7672  -7.7672  -7.6738  -7.6738
    -7.6737  -7.6737  -7.6737  -7.6737  -7.5388  -7.5388  -7.4224  -7.4224
    -7.4221  -7.4221  -7.1368  -7.1368  -7.1368  -7.1368  -7.0211  -7.0211
    -0.4578  -0.4578  -0.1784  -0.1784  -0.1780  -0.1780   2.4109   2.4109
     2.4116   2.4116   3.3016   3.3016   5.1031   5.1031   5.1750   5.1750
     5.1752   5.1752   5.2583   5.2583   5.3708   5.3708   5.3709   5.3709
     5.4303   5.4303   5.4511   5.4511   5.4517   5.4517   5.5351   5.5351
     5.5999   5.5999   5.6909   5.6909   5.6916   5.6916   6.4242   6.4242
     6.4246   6.4246

     occupation numbers 
     1.0000   1.0000   1.0000   1.0000   1.0000   1.0000   1.0000   1.0000
     1.0000   1.0000   1.0000   1.0000   1.0000   1.0000   1.0000   1.0000
     1.0000   1.0000   1.0000   1.0000   1.0000   1.0000   1.0000   1.0000
     1.0000   1.0000   1.0000   1.0000   1.0000   1.0000   1.0000   1.0000
     1.0000   1.0000   1.0000   1.0000   1.0000   1.0000   1.0000   1.0000
     1.0000   1.0000   1.0000   1.0000   1.0000   1.0000   1.0000   1.0000
     1.0000   1.0000   1.0000   1.0000   1.0000   1.0000   1.0000   1.0000
     1.0000   1.0000   1.0000   1.0000   1.0000   1.0000   1.0000   1.0000
     1.0000   1.0000   1.0000   1.0000   1.0000   1.0000   1.0000   1.0000
     1.0000   1.0000   1.0000   1.0000   1.0000   1.0000   1.0000   1.0000
     1.0000   1.0000   1.0000   1.0000   1.0000   1.0000   1.0000   1.0000
     1.0000   1.0000   1.0000   1.0000   1.0000   1.0000   1.0000   1.0000
     1.0000   1.0000   1.0000   1.0000   1.0000   1.0000   1.0000   1.0000
     1.0000   1.0000   1.0000   1.0000   1.0000   1.0000   1.0000   1.0000
     1.0000   1.0000

          k = 0.0000 0.0000 0.0318 ( 60498 PWs)   bands (ev):

    -8.3852  -8.3852  -8.3849  -8.3849  -8.3846  -8.3846  -8.2799  -8.2799
    -8.2794  -8.2794  -8.2787  -8.2787  -8.2738  -8.2738  -8.2737  -8.2737
    -8.2737  -8.2737  -8.2561  -8.2561  -8.2561  -8.2561  -8.2561  -8.2561
    -7.8675  -7.8675  -7.8675  -7.8675  -7.8674  -7.8674  -7.8460  -7.8460
    -7.8452  -7.8452  -7.8444  -7.8444  -7.8358  -7.8358  -7.8344  -7.8344
    -7.8329  -7.8329  -7.7930  -7.7930  -7.7857  -7.7857  -7.7714  -7.7714
    -7.7676  -7.7676  -7.7672  -7.7672  -7.7672  -7.7672  -7.6738  -7.6738
    -7.6737  -7.6737  -7.6737  -7.6737  -7.5331  -7.5331  -7.4586  -7.4586
    -7.3864  -7.3864  -7.1735  -7.1735  -7.0999  -7.0999  -7.0265  -7.0265
    -0.4438  -0.4438  -0.2606  -0.2606  -0.1076  -0.1076   2.2553   2.2553
     2.6158   2.6158   3.2349   3.2349   5.1499   5.1499   5.1653   5.1653
     5.1890   5.1890   5.2518   5.2518   5.3470   5.3470   5.3859   5.3859
     5.4410   5.4414   5.4657   5.4665   5.4674   5.4674   5.5247   5.5255
     5.6100   5.6108   5.6741   5.6749   5.7029   5.7032   6.1210   6.1210
     6.7080   6.7080

     occupation numbers 
     1.0000   1.0000   1.0000   1.0000   1.0000   1.0000   1.0000   1.0000
     1.0000   1.0000   1.0000   1.0000   1.0000   1.0000   1.0000   1.0000
     1.0000   1.0000   1.0000   1.0000   1.0000   1.0000   1.0000   1.0000
     1.0000   1.0000   1.0000   1.0000   1.0000   1.0000   1.0000   1.0000
     1.0000   1.0000   1.0000   1.0000   1.0000   1.0000   1.0000   1.0000
     1.0000   1.0000   1.0000   1.0000   1.0000   1.0000   1.0000   1.0000
     1.0000   1.0000   1.0000   1.0000   1.0000   1.0000   1.0000   1.0000
     1.0000   1.0000   1.0000   1.0000   1.0000   1.0000   1.0000   1.0000
     1.0000   1.0000   1.0000   1.0000   1.0000   1.0000   1.0000   1.0000
     1.0000   1.0000   1.0000   1.0000   1.0000   1.0000   1.0000   1.0000
     1.0000   1.0000   1.0000   1.0000   1.0000   1.0000   1.0000   1.0000
     1.0000   1.0000   1.0000   1.0000   1.0000   1.0000   1.0000   1.0000
     1.0000   1.0000   1.0000   1.0000   1.0000   1.0000   1.0000   1.0000
     1.0000   1.0000   1.0000   1.0000   1.0000   1.0000   1.0000   1.0000
     1.0000   1.0000

          k = 0.0000 0.0000 0.0637 ( 60528 PWs)   bands (ev):

    -8.3851  -8.3851  -8.3850  -8.3850  -8.3846  -8.3846  -8.2800  -8.2800
    -8.2791  -8.2791  -8.2788  -8.2788  -8.2738  -8.2738  -8.2737  -8.2737
    -8.2737  -8.2737  -8.2561  -8.2561  -8.2561  -8.2561  -8.2561  -8.2561
    -7.8675  -7.8675  -7.8675  -7.8675  -7.8674  -7.8674  -7.8458  -7.8458
    -7.8456  -7.8456  -7.8441  -7.8441  -7.8362  -7.8362  -7.8337  -7.8337
    -7.8332  -7.8332  -7.7946  -7.7946  -7.7806  -7.7806  -7.7755  -7.7755
    -7.7674  -7.7674  -7.7673  -7.7673  -7.7672  -7.7672  -7.6738  -7.6738
    -7.6737  -7.6737  -7.6737  -7.6737  -7.5165  -7.5165  -7.4910  -7.4910
    -7.3604  -7.3604  -7.1999  -7.1999  -7.0674  -7.0674  -7.0423  -7.0423
    -0.4028  -0.4028  -0.3393  -0.3393  -0.0661  -0.0661   2.1701   2.1701
     2.8437   2.8437   3.0643   3.0643   5.1602   5.1602   5.2056   5.2056
     5.2149   5.2149   5.2588   5.2588   5.3109   5.3109   5.3933   5.3933
     5.4359   5.4361   5.4841   5.4850   5.5047   5.5057   5.5984   5.5984
     5.6310   5.6320   5.6535   5.6545   5.7091   5.7092   5.8318   5.8318
     6.9117   6.9117

     occupation numbers 
     1.0000   1.0000   1.0000   1.0000   1.0000   1.0000   1.0000   1.0000
     1.0000   1.0000   1.0000   1.0000   1.0000   1.0000   1.0000   1.0000
     1.0000   1.0000   1.0000   1.0000   1.0000   1.0000   1.0000   1.0000
     1.0000   1.0000   1.0000   1.0000   1.0000   1.0000   1.0000   1.0000
     1.0000   1.0000   1.0000   1.0000   1.0000   1.0000   1.0000   1.0000
     1.0000   1.0000   1.0000   1.0000   1.0000   1.0000   1.0000   1.0000
     1.0000   1.0000   1.0000   1.0000   1.0000   1.0000   1.0000   1.0000
     1.0000   1.0000   1.0000   1.0000   1.0000   1.0000   1.0000   1.0000
     1.0000   1.0000   1.0000   1.0000   1.0000   1.0000   1.0000   1.0000
     1.0000   1.0000   1.0000   1.0000   1.0000   1.0000   1.0000   1.0000
     1.0000   1.0000   1.0000   1.0000   1.0000   1.0000   1.0000   1.0000
     1.0000   1.0000   1.0000   1.0000   1.0000   1.0000   1.0000   1.0000
     1.0000   1.0000   1.0000   1.0000   1.0000   1.0000   1.0000   1.0000
     1.0000   1.0000   1.0000   1.0000   1.0000   1.0000   1.0000   1.0000
     1.0000   1.0000

          k = 0.0000 0.0770-0.0000 ( 60530 PWs)   bands (ev):

    -8.3869  -8.3866  -8.3866  -8.3864  -8.3863  -8.3862  -8.2865  -8.2864
    -8.2860  -8.2860  -8.2858  -8.2858  -8.2763  -8.2762  -8.2759  -8.2758
    -8.2757  -8.2754  -8.2574  -8.2573  -8.2572  -8.2571  -8.2571  -8.2570
    -7.8932  -7.8926  -7.8893  -7.8885  -7.8882  -7.8876  -7.8657  -7.8656
    -7.8629  -7.8626  -7.8625  -7.8621  -7.8326  -7.8319  -7.8319  -7.8318
    -7.8312  -7.8311  -7.7722  -7.7714  -7.7709  -7.7701  -7.7686  -7.7683
    -7.7600  -7.7595  -7.7592  -7.7587  -7.7505  -7.7505  -7.6732  -7.6732
    -7.6727  -7.6727  -7.6725  -7.6725  -7.4725  -7.4725  -7.3640  -7.3639
    -7.3621  -7.3620  -7.0899  -7.0897  -7.0890  -7.0889  -6.9747  -6.9746
    -0.4257  -0.4257  -0.1568  -0.1568  -0.1562  -0.1562   2.4214   2.4218
     2.4232   2.4239   3.2282   3.2285   4.7038   4.7073   4.8791   4.8793
     4.9004   4.9012   5.0118   5.0120   5.0318   5.0374   5.1423   5.1432
     5.2681   5.2686   5.2905   5.2931   5.2944   5.2953   5.4518   5.4520
     5.4850   5.4876   5.5155   5.5161   5.6024   5.6034   6.5153   6.5218
     6.5272   6.5279

     occupation numbers 
     1.0000   1.0000   1.0000   1.0000   1.0000   1.0000   1.0000   1.0000
     1.0000   1.0000   1.0000   1.0000   1.0000   1.0000   1.0000   1.0000
     1.0000   1.0000   1.0000   1.0000   1.0000   1.0000   1.0000   1.0000
     1.0000   1.0000   1.0000   1.0000   1.0000   1.0000   1.0000   1.0000
     1.0000   1.0000   1.0000   1.0000   1.0000   1.0000   1.0000   1.0000
     1.0000   1.0000   1.0000   1.0000   1.0000   1.0000   1.0000   1.0000
     1.0000   1.0000   1.0000   1.0000   1.0000   1.0000   1.0000   1.0000
     1.0000   1.0000   1.0000   1.0000   1.0000   1.0000   1.0000   1.0000
     1.0000   1.0000   1.0000   1.0000   1.0000   1.0000   1.0000   1.0000
     1.0000   1.0000   1.0000   1.0000   1.0000   1.0000   1.0000   1.0000
     1.0000   1.0000   1.0000   1.0000   1.0000   1.0000   1.0000   1.0000
     1.0000   1.0000   1.0000   1.0000   1.0000   1.0000   1.0000   1.0000
     1.0000   1.0000   1.0000   1.0000   1.0000   1.0000   1.0000   1.0000
     1.0000   1.0000   1.0000   1.0000   1.0000   1.0000   1.0000   1.0000
     1.0000   1.0000

          k = 0.0000 0.0770 0.0318 ( 60542 PWs)   bands (ev):

    -8.3869  -8.3867  -8.3866  -8.3864  -8.3864  -8.3862  -8.2864  -8.2864
    -8.2862  -8.2860  -8.2859  -8.2857  -8.2763  -8.2762  -8.2759  -8.2758
    -8.2756  -8.2754  -8.2574  -8.2573  -8.2572  -8.2572  -8.2571  -8.2570
    -7.8926  -7.8926  -7.8907  -7.8888  -7.8874  -7.8873  -7.8655  -7.8654
    -7.8634  -7.8633  -7.8623  -7.8616  -7.8325  -7.8321  -7.8319  -7.8316
    -7.8313  -7.8311  -7.7721  -7.7719  -7.7712  -7.7693  -7.7686  -7.7685
    -7.7609  -7.7599  -7.7581  -7.7572  -7.7517  -7.7507  -7.6732  -7.6731
    -7.6728  -7.6726  -7.6725  -7.6724  -7.4677  -7.4669  -7.3989  -7.3971
    -7.3286  -7.3269  -7.1267  -7.1256  -7.0529  -7.0523  -6.9801  -6.9799
    -0.4120  -0.4120  -0.2357  -0.2356  -0.0890  -0.0890   2.2763   2.2765
     2.6132   2.6141   3.1699   3.1707   4.7255   4.7299   4.8670   4.8676
     4.8984   4.8985   5.0228   5.0236   5.0294   5.0362   5.1206   5.1224
     5.2621   5.2622   5.3040   5.3060   5.3137   5.3149   5.4454   5.4472
     5.4596   5.4627   5.5244   5.5245   5.6609   5.6640   6.2691   6.2746
     6.7415   6.7435

     occupation numbers 
     1.0000   1.0000   1.0000   1.0000   1.0000   1.0000   1.0000   1.0000
     1.0000   1.0000   1.0000   1.0000   1.0000   1.0000   1.0000   1.0000
     1.0000   1.0000   1.0000   1.0000   1.0000   1.0000   1.0000   1.0000
     1.0000   1.0000   1.0000   1.0000   1.0000   1.0000   1.0000   1.0000
     1.0000   1.0000   1.0000   1.0000   1.0000   1.0000   1.0000   1.0000
     1.0000   1.0000   1.0000   1.0000   1.0000   1.0000   1.0000   1.0000
     1.0000   1.0000   1.0000   1.0000   1.0000   1.0000   1.0000   1.0000
     1.0000   1.0000   1.0000   1.0000   1.0000   1.0000   1.0000   1.0000
     1.0000   1.0000   1.0000   1.0000   1.0000   1.0000   1.0000   1.0000
     1.0000   1.0000   1.0000   1.0000   1.0000   1.0000   1.0000   1.0000
     1.0000   1.0000   1.0000   1.0000   1.0000   1.0000   1.0000   1.0000
     1.0000   1.0000   1.0000   1.0000   1.0000   1.0000   1.0000   1.0000
     1.0000   1.0000   1.0000   1.0000   1.0000   1.0000   1.0000   1.0000
     1.0000   1.0000   1.0000   1.0000   1.0000   1.0000   1.0000   1.0000
     1.0000   1.0000

          k = 0.0000 0.0770 0.0637 ( 60513 PWs)   bands (ev):

    -8.3869  -8.3867  -8.3866  -8.3864  -8.3864  -8.3862  -8.2864  -8.2864
    -8.2862  -8.2861  -8.2858  -8.2857  -8.2764  -8.2761  -8.2759  -8.2758
    -8.2756  -8.2755  -8.2574  -8.2573  -8.2572  -8.2572  -8.2570  -8.2570
    -7.8922  -7.8920  -7.8917  -7.8900  -7.8870  -7.8865  -7.8649  -7.8649
    -7.8643  -7.8641  -7.8619  -7.8614  -7.8324  -7.8323  -7.8318  -7.8316
    -7.8314  -7.8310  -7.7727  -7.7722  -7.7702  -7.7690  -7.7688  -7.7687
    -7.7612  -7.7605  -7.7561  -7.7547  -7.7539  -7.7523  -7.6732  -7.6730
    -7.6729  -7.6727  -7.6725  -7.6724  -7.4530  -7.4515  -7.4295  -7.4277
    -7.3022  -7.3012  -7.1534  -7.1527  -7.0207  -7.0202  -6.9959  -6.9954
    -0.3724  -0.3723  -0.3114  -0.3113  -0.0497  -0.0497   2.1971   2.1971
     2.8224   2.8234   3.0192   3.0202   4.7797   4.7838   4.8356   4.8363
     4.8907   4.8909   5.0344   5.0362   5.0416   5.0489   5.0786   5.0804
     5.2618   5.2620   5.3088   5.3092   5.3328   5.3343   5.4326   5.4362
     5.4542   5.4571   5.5254   5.5261   5.8133   5.8175   6.0260   6.0305
     6.8713   6.8764

     occupation numbers 
     1.0000   1.0000   1.0000   1.0000   1.0000   1.0000   1.0000   1.0000
     1.0000   1.0000   1.0000   1.0000   1.0000   1.0000   1.0000   1.0000
     1.0000   1.0000   1.0000   1.0000   1.0000   1.0000   1.0000   1.0000
     1.0000   1.0000   1.0000   1.0000   1.0000   1.0000   1.0000   1.0000
     1.0000   1.0000   1.0000   1.0000   1.0000   1.0000   1.0000   1.0000
     1.0000   1.0000   1.0000   1.0000   1.0000   1.0000   1.0000   1.0000
     1.0000   1.0000   1.0000   1.0000   1.0000   1.0000   1.0000   1.0000
     1.0000   1.0000   1.0000   1.0000   1.0000   1.0000   1.0000   1.0000
     1.0000   1.0000   1.0000   1.0000   1.0000   1.0000   1.0000   1.0000
     1.0000   1.0000   1.0000   1.0000   1.0000   1.0000   1.0000   1.0000
     1.0000   1.0000   1.0000   1.0000   1.0000   1.0000   1.0000   1.0000
     1.0000   1.0000   1.0000   1.0000   1.0000   1.0000   1.0000   1.0000
     1.0000   1.0000   1.0000   1.0000   1.0000   1.0000   1.0000   1.0000
     1.0000   1.0000   1.0000   1.0000   1.0000   1.0000   1.0000   1.0000
     1.0000   1.0000

          k = 0.0000 0.1540-0.0000 ( 60538 PWs)   bands (ev):

    -8.3919  -8.3917  -8.3914  -8.3913  -8.3911  -8.3910  -8.3029  -8.3026
    -8.3009  -8.3008  -8.3004  -8.3004  -8.2863  -8.2857  -8.2853  -8.2852
    -8.2846  -8.2843  -8.2597  -8.2594  -8.2593  -8.2589  -8.2588  -8.2587
    -7.9338  -7.9332  -7.9295  -7.9285  -7.9254  -7.9246  -7.8762  -7.8758
    -7.8745  -7.8745  -7.8721  -7.8721  -7.8393  -7.8388  -7.8381  -7.8380
    -7.8376  -7.8375  -7.7667  -7.7665  -7.7664  -7.7663  -7.7662  -7.7661
    -7.7358  -7.7358  -7.7333  -7.7333  -7.7303  -7.7301  -7.6667  -7.6666
    -7.6662  -7.6662  -7.6659  -7.6659  -7.3017  -7.3017  -7.2042  -7.2039
    -7.2001  -7.1995  -6.9542  -6.9535  -6.9515  -6.9512  -6.8411  -6.8411
    -0.3398  -0.3398  -0.1077  -0.1074  -0.1037  -0.1033   2.4104   2.4130
     2.4282   2.4314   2.9350   2.9351   3.9291   3.9291   4.0688   4.0696
     4.0898   4.0905   4.3313   4.3359   4.3415   4.3503   4.7593   4.7613
     4.9977   4.9977   5.0522   5.0529   5.0802   5.0806   5.2251   5.2274
     5.2541   5.2569   5.3181   5.3187   5.6579   5.6593   6.4733   6.4836
     6.5172   6.5210

     occupation numbers 
     1.0000   1.0000   1.0000   1.0000   1.0000   1.0000   1.0000   1.0000
     1.0000   1.0000   1.0000   1.0000   1.0000   1.0000   1.0000   1.0000
     1.0000   1.0000   1.0000   1.0000   1.0000   1.0000   1.0000   1.0000
     1.0000   1.0000   1.0000   1.0000   1.0000   1.0000   1.0000   1.0000
     1.0000   1.0000   1.0000   1.0000   1.0000   1.0000   1.0000   1.0000
     1.0000   1.0000   1.0000   1.0000   1.0000   1.0000   1.0000   1.0000
     1.0000   1.0000   1.0000   1.0000   1.0000   1.0000   1.0000   1.0000
     1.0000   1.0000   1.0000   1.0000   1.0000   1.0000   1.0000   1.0000
     1.0000   1.0000   1.0000   1.0000   1.0000   1.0000   1.0000   1.0000
     1.0000   1.0000   1.0000   1.0000   1.0000   1.0000   1.0000   1.0000
     1.0000   1.0000   1.0000   1.0000   1.0000   1.0000   1.0000   1.0000
     1.0000   1.0000   1.0000   1.0000   1.0000   1.0000   1.0000   1.0000
     1.0000   1.0000   1.0000   1.0000   1.0000   1.0000   1.0000   1.0000
     1.0000   1.0000   1.0000   1.0000   1.0000   1.0000   1.0000   1.0000
     1.0000   1.0000

          k = 0.0000 0.1540 0.0318 ( 60526 PWs)   bands (ev):

    -8.3918  -8.3917  -8.3914  -8.3913  -8.3911  -8.3910  -8.3029  -8.3024
    -8.3014  -8.3010  -8.3003  -8.3000  -8.2862  -8.2860  -8.2852  -8.2852
    -8.2845  -8.2843  -8.2597  -8.2595  -8.2593  -8.2589  -8.2588  -8.2586
    -7.9337  -7.9326  -7.9315  -7.9264  -7.9262  -7.9246  -7.8767  -7.8755
    -7.8750  -7.8733  -7.8727  -7.8719  -7.8392  -7.8387  -7.8384  -7.8378
    -7.8378  -7.8373  -7.7666  -7.7666  -7.7665  -7.7662  -7.7662  -7.7661
    -7.7361  -7.7350  -7.7345  -7.7319  -7.7310  -7.7299  -7.6667  -7.6665
    -7.6663  -7.6660  -7.6660  -7.6658  -7.2978  -7.2964  -7.2370  -7.2329
    -7.1696  -7.1656  -6.9909  -6.9880  -6.9174  -6.9154  -6.8466  -6.8460
    -0.3270  -0.3269  -0.1754  -0.1750  -0.0475  -0.0473   2.3079   2.3095
     2.5635   2.5675   2.8984   2.9004   3.9372   3.9384   4.0377   4.0394
     4.1226   4.1231   4.2753   4.2770   4.4072   4.4173   4.7175   4.7258
     4.9954   4.9956   5.0648   5.0651   5.0790   5.0799   5.2240   5.2275
     5.2417   5.2458   5.3210   5.3211   5.7283   5.7344   6.2884   6.2986
     6.6547   6.6548

     occupation numbers 
     1.0000   1.0000   1.0000   1.0000   1.0000   1.0000   1.0000   1.0000
     1.0000   1.0000   1.0000   1.0000   1.0000   1.0000   1.0000   1.0000
     1.0000   1.0000   1.0000   1.0000   1.0000   1.0000   1.0000   1.0000
     1.0000   1.0000   1.0000   1.0000   1.0000   1.0000   1.0000   1.0000
     1.0000   1.0000   1.0000   1.0000   1.0000   1.0000   1.0000   1.0000
     1.0000   1.0000   1.0000   1.0000   1.0000   1.0000   1.0000   1.0000
     1.0000   1.0000   1.0000   1.0000   1.0000   1.0000   1.0000   1.0000
     1.0000   1.0000   1.0000   1.0000   1.0000   1.0000   1.0000   1.0000
     1.0000   1.0000   1.0000   1.0000   1.0000   1.0000   1.0000   1.0000
     1.0000   1.0000   1.0000   1.0000   1.0000   1.0000   1.0000   1.0000
     1.0000   1.0000   1.0000   1.0000   1.0000   1.0000   1.0000   1.0000
     1.0000   1.0000   1.0000   1.0000   1.0000   1.0000   1.0000   1.0000
     1.0000   1.0000   1.0000   1.0000   1.0000   1.0000   1.0000   1.0000
     1.0000   1.0000   1.0000   1.0000   1.0000   1.0000   1.0000   1.0000
     1.0000   1.0000

          k = 0.0000 0.1540 0.0637 ( 60537 PWs)   bands (ev):

    -8.3919  -8.3917  -8.3914  -8.3913  -8.3911  -8.3910  -8.3026  -8.3020
    -8.3020  -8.3017  -8.2999  -8.2999  -8.2863  -8.2859  -8.2852  -8.2852
    -8.2846  -8.2842  -8.2596  -8.2595  -8.2593  -8.2589  -8.2588  -8.2586
    -7.9334  -7.9332  -7.9309  -7.9283  -7.9247  -7.9247  -7.8769  -7.8763
    -7.8741  -7.8735  -7.8725  -7.8720  -7.8390  -7.8387  -7.8385  -7.8382
    -7.8377  -7.8372  -7.7666  -7.7666  -7.7665  -7.7662  -7.7662  -7.7661
    -7.7360  -7.7355  -7.7338  -7.7323  -7.7307  -7.7301  -7.6667  -7.6665
    -7.6663  -7.6662  -7.6659  -7.6658  -7.2852  -7.2825  -7.2647  -7.2611
    -7.1423  -7.1401  -7.0181  -7.0162  -6.8860  -6.8844  -6.8621  -6.8609
    -0.2915  -0.2913  -0.2408  -0.2405  -0.0157  -0.0156   2.2536   2.2540
     2.7033   2.7077   2.8083   2.8117   3.9645   3.9663   4.0032   4.0054
     4.1339   4.1352   4.2510   4.2533   4.4948   4.5054   4.6197   4.6295
     5.0001   5.0005   5.0436   5.0440   5.1058   5.1068   5.1950   5.1988
     5.2648   5.2685   5.3150   5.3160   5.8998   5.9081   6.0835   6.0928
     6.7188   6.7226

     occupation numbers 
     1.0000   1.0000   1.0000   1.0000   1.0000   1.0000   1.0000   1.0000
     1.0000   1.0000   1.0000   1.0000   1.0000   1.0000   1.0000   1.0000
     1.0000   1.0000   1.0000   1.0000   1.0000   1.0000   1.0000   1.0000
     1.0000   1.0000   1.0000   1.0000   1.0000   1.0000   1.0000   1.0000
     1.0000   1.0000   1.0000   1.0000   1.0000   1.0000   1.0000   1.0000
     1.0000   1.0000   1.0000   1.0000   1.0000   1.0000   1.0000   1.0000
     1.0000   1.0000   1.0000   1.0000   1.0000   1.0000   1.0000   1.0000
     1.0000   1.0000   1.0000   1.0000   1.0000   1.0000   1.0000   1.0000
     1.0000   1.0000   1.0000   1.0000   1.0000   1.0000   1.0000   1.0000
     1.0000   1.0000   1.0000   1.0000   1.0000   1.0000   1.0000   1.0000
     1.0000   1.0000   1.0000   1.0000   1.0000   1.0000   1.0000   1.0000
     1.0000   1.0000   1.0000   1.0000   1.0000   1.0000   1.0000   1.0000
     1.0000   1.0000   1.0000   1.0000   1.0000   1.0000   1.0000   1.0000
     1.0000   1.0000   1.0000   1.0000   1.0000   1.0000   1.0000   1.0000
     1.0000   1.0000

          k = 0.0000 0.2309-0.0000 ( 60564 PWs)   bands (ev):

    -8.3997  -8.3995  -8.3990  -8.3990  -8.3987  -8.3984  -8.3259  -8.3252
    -8.3221  -8.3213  -8.3211  -8.3207  -8.2988  -8.2985  -8.2978  -8.2977
    -8.2966  -8.2958  -8.2608  -8.2605  -8.2604  -8.2600  -8.2599  -8.2597
    -7.9599  -7.9595  -7.9564  -7.9553  -7.9513  -7.9506  -7.8865  -7.8861
    -7.8860  -7.8859  -7.8823  -7.8821  -7.8417  -7.8414  -7.8410  -7.8408
    -7.8407  -7.8405  -7.7643  -7.7642  -7.7642  -7.7642  -7.7641  -7.7640
    -7.7232  -7.7232  -7.7215  -7.7214  -7.7204  -7.7204  -7.6547  -7.6545
    -7.6542  -7.6542  -7.6541  -7.6541  -7.0591  -7.0591  -6.9700  -6.9684
    -6.9649  -6.9631  -6.7451  -6.7430  -6.7411  -6.7394  -6.6364  -6.6364
    -0.2397  -0.2396  -0.0828  -0.0819  -0.0679  -0.0670   2.2066   2.2127
     2.2771   2.2840   2.3497   2.3516   3.1128   3.1159   3.2431   3.2446
     3.2755   3.2760   3.7813   3.7970   3.7981   3.8088   4.5409   4.5450
     4.6971   4.6978   4.7697   4.7702   4.8059   4.8067   4.9729   4.9758
     4.9884   4.9914   5.0757   5.0760   5.6824   5.6842   6.2446   6.2563
     6.3357   6.3414

     occupation numbers 
     1.0000   1.0000   1.0000   1.0000   1.0000   1.0000   1.0000   1.0000
     1.0000   1.0000   1.0000   1.0000   1.0000   1.0000   1.0000   1.0000
     1.0000   1.0000   1.0000   1.0000   1.0000   1.0000   1.0000   1.0000
     1.0000   1.0000   1.0000   1.0000   1.0000   1.0000   1.0000   1.0000
     1.0000   1.0000   1.0000   1.0000   1.0000   1.0000   1.0000   1.0000
     1.0000   1.0000   1.0000   1.0000   1.0000   1.0000   1.0000   1.0000
     1.0000   1.0000   1.0000   1.0000   1.0000   1.0000   1.0000   1.0000
     1.0000   1.0000   1.0000   1.0000   1.0000   1.0000   1.0000   1.0000
     1.0000   1.0000   1.0000   1.0000   1.0000   1.0000   1.0000   1.0000
     1.0000   1.0000   1.0000   1.0000   1.0000   1.0000   1.0000   1.0000
     1.0000   1.0000   1.0000   1.0000   1.0000   1.0000   1.0000   1.0000
     1.0000   1.0000   1.0000   1.0000   1.0000   1.0000   1.0000   1.0000
     1.0000   1.0000   1.0000   1.0000   1.0000   1.0000   1.0000   1.0000
     1.0000   1.0000   1.0000   1.0000   1.0000   1.0000   1.0000   1.0000
     1.0000   1.0000

          k = 0.0000 0.2309 0.0318 ( 60563 PWs)   bands (ev):

    -8.3998  -8.3994  -8.3991  -8.3989  -8.3988  -8.3983  -8.3254  -8.3251
    -8.3234  -8.3219  -8.3202  -8.3202  -8.2992  -8.2983  -8.2979  -8.2972
    -8.2968  -8.2959  -8.2608  -8.2605  -8.2604  -8.2600  -8.2599  -8.2597
    -7.9602  -7.9585  -7.9583  -7.9531  -7.9521  -7.9507  -7.8874  -7.8869
    -7.8849  -7.8848  -7.8827  -7.8823  -7.8417  -7.8414  -7.8410  -7.8409
    -7.8408  -7.8404  -7.7643  -7.7642  -7.7642  -7.7642  -7.7641  -7.7641
    -7.7233  -7.7229  -7.7221  -7.7209  -7.7207  -7.7201  -7.6547  -7.6545
    -7.6543  -7.6542  -7.6541  -7.6540  -7.0556  -7.0540  -7.0007  -6.9959
    -6.9354  -6.9303  -6.7808  -6.7766  -6.7085  -6.7054  -6.6419  -6.6411
    -0.2280  -0.2278  -0.1291  -0.1282  -0.0328  -0.0321   2.1930   2.1976
     2.3090   2.3172   2.3309   2.3320   3.1214   3.1237   3.1988   3.2001
     3.3328   3.3337   3.6508   3.6560   3.9454   3.9616   4.4834   4.4963
     4.6968   4.6974   4.7813   4.7815   4.8016   4.8020   4.9542   4.9575
     4.9981   5.0019   5.0750   5.0754   5.7524   5.7610   6.1269   6.1397
     6.4014   6.4029

     occupation numbers 
     1.0000   1.0000   1.0000   1.0000   1.0000   1.0000   1.0000   1.0000
     1.0000   1.0000   1.0000   1.0000   1.0000   1.0000   1.0000   1.0000
     1.0000   1.0000   1.0000   1.0000   1.0000   1.0000   1.0000   1.0000
     1.0000   1.0000   1.0000   1.0000   1.0000   1.0000   1.0000   1.0000
     1.0000   1.0000   1.0000   1.0000   1.0000   1.0000   1.0000   1.0000
     1.0000   1.0000   1.0000   1.0000   1.0000   1.0000   1.0000   1.0000
     1.0000   1.0000   1.0000   1.0000   1.0000   1.0000   1.0000   1.0000
     1.0000   1.0000   1.0000   1.0000   1.0000   1.0000   1.0000   1.0000
     1.0000   1.0000   1.0000   1.0000   1.0000   1.0000   1.0000   1.0000
     1.0000   1.0000   1.0000   1.0000   1.0000   1.0000   1.0000   1.0000
     1.0000   1.0000   1.0000   1.0000   1.0000   1.0000   1.0000   1.0000
     1.0000   1.0000   1.0000   1.0000   1.0000   1.0000   1.0000   1.0000
     1.0000   1.0000   1.0000   1.0000   1.0000   1.0000   1.0000   1.0000
     1.0000   1.0000   1.0000   1.0000   1.0000   1.0000   1.0000   1.0000
     1.0000   1.0000

          k = 0.0000 0.2309 0.0637 ( 60595 PWs)   bands (ev):

    -8.3998  -8.3993  -8.3991  -8.3990  -8.3987  -8.3983  -8.3246  -8.3245
    -8.3245  -8.3230  -8.3199  -8.3195  -8.2995  -8.2986  -8.2974  -8.2971
    -8.2966  -8.2962  -8.2608  -8.2606  -8.2604  -8.2600  -8.2599  -8.2597
    -7.9601  -7.9598  -7.9566  -7.9541  -7.9512  -7.9511  -7.8878  -7.8874
    -7.8839  -7.8837  -7.8834  -7.8828  -7.8416  -7.8412  -7.8412  -7.8411
    -7.8407  -7.8403  -7.7643  -7.7642  -7.7642  -7.7642  -7.7641  -7.7641
    -7.7231  -7.7227  -7.7223  -7.7216  -7.7202  -7.7201  -7.6546  -7.6544
    -7.6544  -7.6544  -7.6540  -7.6540  -7.0440  -7.0410  -7.0261  -7.0220
    -6.9077  -6.9048  -6.8081  -6.8054  -6.6787  -6.6762  -6.6568  -6.6551
    -0.2001  -0.1996  -0.1742  -0.1734  -0.0151  -0.0148   2.1962   2.1983
     2.3012   2.3048   2.3344   2.3426   3.1437   3.1452   3.1625   3.1655
     3.3776   3.3846   3.5482   3.5540   4.1312   4.1468   4.3423   4.3584
     4.7044   4.7051   4.7493   4.7500   4.8324   4.8326   4.9236   4.9266
     5.0249   5.0281   5.0648   5.0660   5.9019   5.9135   5.9878   6.0004
     6.4185   6.4213

     occupation numbers 
     1.0000   1.0000   1.0000   1.0000   1.0000   1.0000   1.0000   1.0000
     1.0000   1.0000   1.0000   1.0000   1.0000   1.0000   1.0000   1.0000
     1.0000   1.0000   1.0000   1.0000   1.0000   1.0000   1.0000   1.0000
     1.0000   1.0000   1.0000   1.0000   1.0000   1.0000   1.0000   1.0000
     1.0000   1.0000   1.0000   1.0000   1.0000   1.0000   1.0000   1.0000
     1.0000   1.0000   1.0000   1.0000   1.0000   1.0000   1.0000   1.0000
     1.0000   1.0000   1.0000   1.0000   1.0000   1.0000   1.0000   1.0000
     1.0000   1.0000   1.0000   1.0000   1.0000   1.0000   1.0000   1.0000
     1.0000   1.0000   1.0000   1.0000   1.0000   1.0000   1.0000   1.0000
     1.0000   1.0000   1.0000   1.0000   1.0000   1.0000   1.0000   1.0000
     1.0000   1.0000   1.0000   1.0000   1.0000   1.0000   1.0000   1.0000
     1.0000   1.0000   1.0000   1.0000   1.0000   1.0000   1.0000   1.0000
     1.0000   1.0000   1.0000   1.0000   1.0000   1.0000   1.0000   1.0000
     1.0000   1.0000   1.0000   1.0000   1.0000   1.0000   1.0000   1.0000
     1.0000   1.0000

          k = 0.0000 0.3079-0.0000 ( 60604 PWs)   bands (ev):

    -8.4091  -8.4089  -8.4081  -8.4080  -8.4078  -8.4070  -8.3504  -8.3496
    -8.3482  -8.3467  -8.3459  -8.3451  -8.3075  -8.3069  -8.3067  -8.3064
    -8.3054  -8.3047  -8.2614  -8.2611  -8.2610  -8.2607  -8.2606  -8.2604
    -7.9745  -7.9744  -7.9721  -7.9710  -7.9674  -7.9669  -7.8930  -7.8929
    -7.8928  -7.8922  -7.8893  -7.8891  -7.8419  -7.8418  -7.8416  -7.8414
    -7.8413  -7.8412  -7.7620  -7.7620  -7.7620  -7.7620  -7.7619  -7.7619
    -7.7182  -7.7181  -7.7172  -7.7171  -7.7166  -7.7165  -7.6421  -7.6419
    -7.6417  -7.6416  -7.6416  -7.6416  -6.7675  -6.7674  -6.6874  -6.6826
    -6.6820  -6.6770  -6.4872  -6.4826  -6.4816  -6.4773  -6.3853  -6.3853
    -0.2162  -0.2158  -0.1735  -0.1723  -0.1383  -0.1368   1.6221   1.6254
     1.6426   1.6481   1.7538   1.7577   2.4824   2.4872   2.7182   2.7267
     2.7384   2.7426   3.6268   3.6491   3.6664   3.6820   4.4054   4.4071
     4.4253   4.4307   4.4894   4.4894   4.6004   4.6014   4.7217   4.7253
     4.7267   4.7298   4.8255   4.8256   5.6119   5.6144   5.8459   5.8583
     5.9951   6.0024

     occupation numbers 
     1.0000   1.0000   1.0000   1.0000   1.0000   1.0000   1.0000   1.0000
     1.0000   1.0000   1.0000   1.0000   1.0000   1.0000   1.0000   1.0000
     1.0000   1.0000   1.0000   1.0000   1.0000   1.0000   1.0000   1.0000
     1.0000   1.0000   1.0000   1.0000   1.0000   1.0000   1.0000   1.0000
     1.0000   1.0000   1.0000   1.0000   1.0000   1.0000   1.0000   1.0000
     1.0000   1.0000   1.0000   1.0000   1.0000   1.0000   1.0000   1.0000
     1.0000   1.0000   1.0000   1.0000   1.0000   1.0000   1.0000   1.0000
     1.0000   1.0000   1.0000   1.0000   1.0000   1.0000   1.0000   1.0000
     1.0000   1.0000   1.0000   1.0000   1.0000   1.0000   1.0000   1.0000
     1.0000   1.0000   1.0000   1.0000   1.0000   1.0000   1.0000   1.0000
     1.0000   1.0000   1.0000   1.0000   1.0000   1.0000   1.0000   1.0000
     1.0000   1.0000   1.0000   1.0000   1.0000   1.0000   1.0000   1.0000
     1.0000   1.0000   1.0000   1.0000   1.0000   1.0000   1.0000   1.0000
     1.0000   1.0000   1.0000   1.0000   1.0000   1.0000   1.0000   1.0000
     1.0000   1.0000

          k = 0.0000 0.3079 0.0318 ( 60634 PWs)   bands (ev):

    -8.4093  -8.4087  -8.4083  -8.4079  -8.4078  -8.4071  -8.3498  -8.3497
    -8.3492  -8.3461  -8.3456  -8.3455  -8.3078  -8.3070  -8.3064  -8.3062
    -8.3057  -8.3047  -8.2614  -8.2611  -8.2610  -8.2607  -8.2606  -8.2604
    -7.9751  -7.9737  -7.9731  -7.9691  -7.9682  -7.9671  -7.8938  -7.8935
    -7.8917  -7.8913  -7.8896  -7.8894  -7.8420  -7.8417  -7.8415  -7.8415
    -7.8414  -7.8411  -7.7620  -7.7620  -7.7620  -7.7620  -7.7619  -7.7619
    -7.7183  -7.7179  -7.7176  -7.7169  -7.7167  -7.7164  -7.6421  -7.6418
    -7.6417  -7.6417  -7.6415  -7.6415  -6.7639  -6.7623  -6.7155  -6.7106
    -6.6514  -6.6461  -6.5206  -6.5158  -6.4499  -6.4462  -6.3909  -6.3899
    -0.2048  -0.2045  -0.1917  -0.1901  -0.1316  -0.1305   1.6045   1.6053
     1.6771   1.6821   1.7372   1.7431   2.4953   2.5003   2.6279   2.6316
     2.8457   2.8477   3.4591   3.4684   3.8511   3.8731   4.3784   4.3915
     4.4054   4.4068   4.5247   4.5256   4.5664   4.5687   4.6851   4.6886
     4.7492   4.7527   4.8222   4.8232   5.6796   5.6907   5.7895   5.8040
     5.9978   6.0005

     occupation numbers 
     1.0000   1.0000   1.0000   1.0000   1.0000   1.0000   1.0000   1.0000
     1.0000   1.0000   1.0000   1.0000   1.0000   1.0000   1.0000   1.0000
     1.0000   1.0000   1.0000   1.0000   1.0000   1.0000   1.0000   1.0000
     1.0000   1.0000   1.0000   1.0000   1.0000   1.0000   1.0000   1.0000
     1.0000   1.0000   1.0000   1.0000   1.0000   1.0000   1.0000   1.0000
     1.0000   1.0000   1.0000   1.0000   1.0000   1.0000   1.0000   1.0000
     1.0000   1.0000   1.0000   1.0000   1.0000   1.0000   1.0000   1.0000
     1.0000   1.0000   1.0000   1.0000   1.0000   1.0000   1.0000   1.0000
     1.0000   1.0000   1.0000   1.0000   1.0000   1.0000   1.0000   1.0000
     1.0000   1.0000   1.0000   1.0000   1.0000   1.0000   1.0000   1.0000
     1.0000   1.0000   1.0000   1.0000   1.0000   1.0000   1.0000   1.0000
     1.0000   1.0000   1.0000   1.0000   1.0000   1.0000   1.0000   1.0000
     1.0000   1.0000   1.0000   1.0000   1.0000   1.0000   1.0000   1.0000
     1.0000   1.0000   1.0000   1.0000   1.0000   1.0000   1.0000   1.0000
     1.0000   1.0000

          k = 0.0000 0.3079 0.0637 ( 60624 PWs)   bands (ev):

    -8.4094  -8.4084  -8.4084  -8.4081  -8.4076  -8.4072  -8.3501  -8.3495
    -8.3487  -8.3471  -8.3456  -8.3448  -8.3078  -8.3073  -8.3061  -8.3058
    -8.3058  -8.3049  -8.2614  -8.2612  -8.2610  -8.2607  -8.2605  -8.2604
    -7.9750  -7.9748  -7.9715  -7.9698  -7.9676  -7.9676  -7.8942  -7.8938
    -7.8907  -7.8904  -7.8902  -7.8900  -7.8419  -7.8416  -7.8416  -7.8416
    -7.8413  -7.8411  -7.7620  -7.7620  -7.7620  -7.7620  -7.7619  -7.7619
    -7.7181  -7.7179  -7.7176  -7.7173  -7.7165  -7.7164  -7.6420  -7.6418
    -7.6418  -7.6418  -7.6415  -7.6415  -6.7530  -6.7500  -6.7385  -6.7345
    -6.6248  -6.6218  -6.5463  -6.5434  -6.4228  -6.4199  -6.4051  -6.4030
    -0.2071  -0.2056  -0.1883  -0.1874  -0.1326  -0.1320   1.5960   1.5975
     1.7103   1.7123   1.7158   1.7172   2.5272   2.5322   2.5613   2.5614
     2.9460   2.9529   3.2956   3.2999   4.0778   4.0987   4.2757   4.2966
     4.4148   4.4158   4.4906   4.4926   4.5583   4.5612   4.6553   4.6573
     4.7761   4.7788   4.8089   4.8107   5.7252   5.7404   5.7867   5.8016
     5.9766   5.9783

     occupation numbers 
     1.0000   1.0000   1.0000   1.0000   1.0000   1.0000   1.0000   1.0000
     1.0000   1.0000   1.0000   1.0000   1.0000   1.0000   1.0000   1.0000
     1.0000   1.0000   1.0000   1.0000   1.0000   1.0000   1.0000   1.0000
     1.0000   1.0000   1.0000   1.0000   1.0000   1.0000   1.0000   1.0000
     1.0000   1.0000   1.0000   1.0000   1.0000   1.0000   1.0000   1.0000
     1.0000   1.0000   1.0000   1.0000   1.0000   1.0000   1.0000   1.0000
     1.0000   1.0000   1.0000   1.0000   1.0000   1.0000   1.0000   1.0000
     1.0000   1.0000   1.0000   1.0000   1.0000   1.0000   1.0000   1.0000
     1.0000   1.0000   1.0000   1.0000   1.0000   1.0000   1.0000   1.0000
     1.0000   1.0000   1.0000   1.0000   1.0000   1.0000   1.0000   1.0000
     1.0000   1.0000   1.0000   1.0000   1.0000   1.0000   1.0000   1.0000
     1.0000   1.0000   1.0000   1.0000   1.0000   1.0000   1.0000   1.0000
     1.0000   1.0000   1.0000   1.0000   1.0000   1.0000   1.0000   1.0000
     1.0000   1.0000   1.0000   1.0000   1.0000   1.0000   1.0000   1.0000
     1.0000   1.0000

          k = 0.0000 0.3849-0.0000 ( 60650 PWs)   bands (ev):

    -8.4182  -8.4180  -8.4174  -8.4167  -8.4161  -8.4154  -8.3721  -8.3718
    -8.3715  -8.3703  -8.3692  -8.3682  -8.3123  -8.3118  -8.3114  -8.3113
    -8.3108  -8.3101  -8.2619  -8.2616  -8.2615  -8.2613  -8.2613  -8.2611
    -7.9828  -7.9824  -7.9813  -7.9799  -7.9774  -7.9772  -7.8956  -7.8955
    -7.8952  -7.8947  -7.8926  -7.8925  -7.8414  -7.8413  -7.8412  -7.8411
    -7.8411  -7.8409  -7.7598  -7.7597  -7.7597  -7.7596  -7.7596  -7.7596
    -7.7161  -7.7159  -7.7155  -7.7154  -7.7151  -7.7149  -7.6315  -7.6312
    -7.6312  -7.6312  -7.6311  -7.6311  -6.4565  -6.4563  -6.3895  -6.3843
    -6.3777  -6.3723  -6.2162  -6.2114  -6.2031  -6.1987  -6.1235  -6.1233
    -0.4336  -0.4325  -0.3832  -0.3825  -0.3793  -0.3776   0.9343   0.9377
     0.9591   0.9624   1.0712   1.0721   2.2215   2.2264   2.5635   2.5678
     2.5701   2.5799   3.7543   3.7749   3.7845   3.7954   4.1668   4.1716
     4.2192   4.2241   4.2541   4.2566   4.4729   4.4751   4.4916   4.4965
     4.6064   4.6074   4.6196   4.6227   5.3403   5.3542   5.3805   5.3848
     5.5491   5.5587

     occupation numbers 
     1.0000   1.0000   1.0000   1.0000   1.0000   1.0000   1.0000   1.0000
     1.0000   1.0000   1.0000   1.0000   1.0000   1.0000   1.0000   1.0000
     1.0000   1.0000   1.0000   1.0000   1.0000   1.0000   1.0000   1.0000
     1.0000   1.0000   1.0000   1.0000   1.0000   1.0000   1.0000   1.0000
     1.0000   1.0000   1.0000   1.0000   1.0000   1.0000   1.0000   1.0000
     1.0000   1.0000   1.0000   1.0000   1.0000   1.0000   1.0000   1.0000
     1.0000   1.0000   1.0000   1.0000   1.0000   1.0000   1.0000   1.0000
     1.0000   1.0000   1.0000   1.0000   1.0000   1.0000   1.0000   1.0000
     1.0000   1.0000   1.0000   1.0000   1.0000   1.0000   1.0000   1.0000
     1.0000   1.0000   1.0000   1.0000   1.0000   1.0000   1.0000   1.0000
     1.0000   1.0000   1.0000   1.0000   1.0000   1.0000   1.0000   1.0000
     1.0000   1.0000   1.0000   1.0000   1.0000   1.0000   1.0000   1.0000
     1.0000   1.0000   1.0000   1.0000   1.0000   1.0000   1.0000   1.0000
     1.0000   1.0000   1.0000   1.0000   1.0000   1.0000   1.0000   1.0000
     1.0000   1.0000

          k = 0.0000 0.3849 0.0318 ( 60662 PWs)   bands (ev):

    -8.4184  -8.4176  -8.4176  -8.4162  -8.4162  -8.4156  -8.3726  -8.3719
    -8.3711  -8.3695  -8.3694  -8.3686  -8.3123  -8.3118  -8.3115  -8.3111
    -8.3110  -8.3101  -8.2619  -8.2616  -8.2616  -8.2613  -8.2612  -8.2611
    -7.9832  -7.9824  -7.9813  -7.9786  -7.9781  -7.9774  -7.8961  -7.8959
    -7.8944  -7.8939  -7.8929  -7.8928  -7.8414  -7.8413  -7.8412  -7.8411
    -7.8411  -7.8409  -7.7597  -7.7597  -7.7597  -7.7596  -7.7596  -7.7596
    -7.7161  -7.7158  -7.7157  -7.7153  -7.7152  -7.7149  -7.6315  -7.6312
    -7.6312  -7.6312  -7.6311  -7.6311  -6.4524  -6.4508  -6.4138  -6.4092
    -6.3499  -6.3447  -6.2455  -6.2406  -6.1759  -6.1720  -6.1295  -6.1283
    -0.4322  -0.4307  -0.3933  -0.3920  -0.3703  -0.3702   0.9127   0.9146
     0.9934   0.9968   1.0584   1.0609   2.2364   2.2427   2.4498   2.4575
     2.6876   2.6909   3.5964   3.6073   3.9574   3.9895   4.1633   4.1662
     4.1835   4.1913   4.2963   4.3021   4.4547   4.4585   4.5025   4.5038
     4.5731   4.5804   4.6013   4.6034   5.3238   5.3410   5.4468   5.4613
     5.5081   5.5126

     occupation numbers 
     1.0000   1.0000   1.0000   1.0000   1.0000   1.0000   1.0000   1.0000
     1.0000   1.0000   1.0000   1.0000   1.0000   1.0000   1.0000   1.0000
     1.0000   1.0000   1.0000   1.0000   1.0000   1.0000   1.0000   1.0000
     1.0000   1.0000   1.0000   1.0000   1.0000   1.0000   1.0000   1.0000
     1.0000   1.0000   1.0000   1.0000   1.0000   1.0000   1.0000   1.0000
     1.0000   1.0000   1.0000   1.0000   1.0000   1.0000   1.0000   1.0000
     1.0000   1.0000   1.0000   1.0000   1.0000   1.0000   1.0000   1.0000
     1.0000   1.0000   1.0000   1.0000   1.0000   1.0000   1.0000   1.0000
     1.0000   1.0000   1.0000   1.0000   1.0000   1.0000   1.0000   1.0000
     1.0000   1.0000   1.0000   1.0000   1.0000   1.0000   1.0000   1.0000
     1.0000   1.0000   1.0000   1.0000   1.0000   1.0000   1.0000   1.0000
     1.0000   1.0000   1.0000   1.0000   1.0000   1.0000   1.0000   1.0000
     1.0000   1.0000   1.0000   1.0000   1.0000   1.0000   1.0000   1.0000
     1.0000   1.0000   1.0000   1.0000   1.0000   1.0000   1.0000   1.0000
     1.0000   1.0000

          k = 0.0000 0.3849 0.0637 ( 60640 PWs)   bands (ev):

    -8.4187  -8.4176  -8.4170  -8.4165  -8.4161  -8.4157  -8.3728  -8.3719
    -8.3704  -8.3699  -8.3693  -8.3687  -8.3122  -8.3121  -8.3114  -8.3110
    -8.3108  -8.3103  -8.2619  -8.2617  -8.2615  -8.2614  -8.2612  -8.2612
    -7.9831  -7.9831  -7.9801  -7.9794  -7.9779  -7.9775  -7.8964  -7.8961
    -7.8936  -7.8934  -7.8934  -7.8933  -7.8414  -7.8413  -7.8412  -7.8412
    -7.8411  -7.8409  -7.7597  -7.7597  -7.7597  -7.7596  -7.7596  -7.7596
    -7.7160  -7.7159  -7.7155  -7.7155  -7.7150  -7.7149  -7.6314  -7.6313
    -7.6313  -7.6312  -7.6311  -7.6310  -6.4419  -6.4390  -6.4334  -6.4298
    -6.3274  -6.3251  -6.2660  -6.2637  -6.1531  -6.1501  -6.1428  -6.1405
    -0.4251  -0.4234  -0.4077  -0.4069  -0.3630  -0.3622   0.9047   0.9048
     1.0267   1.0295   1.0335   1.0373   2.2801   2.2873   2.3522   2.3557
     2.7825   2.7873   3.4694   3.4726   4.1398   4.1441   4.1562   4.1703
     4.1725   4.1743   4.3508   4.3630   4.4242   4.4276   4.4304   4.4347
     4.5615   4.5627   4.5857   4.5889   5.3158   5.3345   5.4590   5.4596
     5.5151   5.5338

     occupation numbers 
     1.0000   1.0000   1.0000   1.0000   1.0000   1.0000   1.0000   1.0000
     1.0000   1.0000   1.0000   1.0000   1.0000   1.0000   1.0000   1.0000
     1.0000   1.0000   1.0000   1.0000   1.0000   1.0000   1.0000   1.0000
     1.0000   1.0000   1.0000   1.0000   1.0000   1.0000   1.0000   1.0000
     1.0000   1.0000   1.0000   1.0000   1.0000   1.0000   1.0000   1.0000
     1.0000   1.0000   1.0000   1.0000   1.0000   1.0000   1.0000   1.0000
     1.0000   1.0000   1.0000   1.0000   1.0000   1.0000   1.0000   1.0000
     1.0000   1.0000   1.0000   1.0000   1.0000   1.0000   1.0000   1.0000
     1.0000   1.0000   1.0000   1.0000   1.0000   1.0000   1.0000   1.0000
     1.0000   1.0000   1.0000   1.0000   1.0000   1.0000   1.0000   1.0000
     1.0000   1.0000   1.0000   1.0000   1.0000   1.0000   1.0000   1.0000
     1.0000   1.0000   1.0000   1.0000   1.0000   1.0000   1.0000   1.0000
     1.0000   1.0000   1.0000   1.0000   1.0000   1.0000   1.0000   1.0000
     1.0000   1.0000   1.0000   1.0000   1.0000   1.0000   1.0000   1.0000
     1.0000   1.0000

          k = 0.0000 0.4619-0.0000 ( 60690 PWs)   bands (ev):

    -8.4251  -8.4250  -8.4249  -8.4231  -8.4224  -8.4222  -8.3893  -8.3878
    -8.3877  -8.3871  -8.3867  -8.3853  -8.3146  -8.3143  -8.3140  -8.3137
    -8.3136  -8.3131  -8.2623  -8.2621  -8.2620  -8.2620  -8.2619  -8.2618
    -7.9874  -7.9866  -7.9864  -7.9849  -7.9835  -7.9834  -7.8960  -7.8959
    -7.8952  -7.8949  -7.8937  -7.8937  -7.8408  -7.8408  -7.8407  -7.8407
    -7.8406  -7.8406  -7.7577  -7.7576  -7.7576  -7.7576  -7.7576  -7.7575
    -7.7150  -7.7148  -7.7147  -7.7145  -7.7144  -7.7142  -7.6240  -7.6238
    -7.6238  -7.6237  -7.6237  -7.6236  -6.1749  -6.1743  -6.1282  -6.1236
    -6.1025  -6.0977  -5.9837  -5.9791  -5.9560  -5.9519  -5.9015  -5.9010
    -0.7575  -0.7569  -0.6999  -0.6987  -0.6923  -0.6916   0.3980   0.3998
     0.4064   0.4090   0.4997   0.5001   2.3257   2.3312   2.6589   2.6709
     2.6730   2.6780   3.8588   3.8816   3.9164   3.9658   4.0459   4.0528
     4.0530   4.0593   4.1240   4.1353   4.3183   4.3230   4.3236   4.3306
     4.4456   4.4485   4.5660   4.5772   4.8647   4.8839   5.0366   5.0464
     5.1172   5.1294

     occupation numbers 
     1.0000   1.0000   1.0000   1.0000   1.0000   1.0000   1.0000   1.0000
     1.0000   1.0000   1.0000   1.0000   1.0000   1.0000   1.0000   1.0000
     1.0000   1.0000   1.0000   1.0000   1.0000   1.0000   1.0000   1.0000
     1.0000   1.0000   1.0000   1.0000   1.0000   1.0000   1.0000   1.0000
     1.0000   1.0000   1.0000   1.0000   1.0000   1.0000   1.0000   1.0000
     1.0000   1.0000   1.0000   1.0000   1.0000   1.0000   1.0000   1.0000
     1.0000   1.0000   1.0000   1.0000   1.0000   1.0000   1.0000   1.0000
     1.0000   1.0000   1.0000   1.0000   1.0000   1.0000   1.0000   1.0000
     1.0000   1.0000   1.0000   1.0000   1.0000   1.0000   1.0000   1.0000
     1.0000   1.0000   1.0000   1.0000   1.0000   1.0000   1.0000   1.0000
     1.0000   1.0000   1.0000   1.0000   1.0000   1.0000   1.0000   1.0000
     1.0000   1.0000   1.0000   1.0000   1.0000   1.0000   1.0000   1.0000
     1.0000   1.0000   1.0000   1.0000   1.0000   1.0000   1.0000   1.0000
     1.0000   1.0000   1.0000   1.0000   1.0000   1.0000   1.0000   1.0000
     1.0000   1.0000

          k = 0.0000 0.4619 0.0318 ( 60698 PWs)   bands (ev):

    -8.4255  -8.4250  -8.4242  -8.4228  -8.4227  -8.4225  -8.3892  -8.3883
    -8.3873  -8.3870  -8.3866  -8.3855  -8.3145  -8.3143  -8.3140  -8.3139
    -8.3135  -8.3131  -8.2623  -8.2621  -8.2620  -8.2620  -8.2619  -8.2618
    -7.9875  -7.9872  -7.9856  -7.9843  -7.9840  -7.9836  -7.8963  -7.8961
    -7.8946  -7.8944  -7.8940  -7.8940  -7.8409  -7.8408  -7.8407  -7.8407
    -7.8407  -7.8405  -7.7577  -7.7576  -7.7576  -7.7576  -7.7576  -7.7575
    -7.7150  -7.7148  -7.7147  -7.7145  -7.7144  -7.7142  -7.6240  -7.6238
    -7.6237  -7.6237  -7.6237  -7.6237  -6.1696  -6.1677  -6.1469  -6.1430
    -6.0810  -6.0770  -6.0053  -6.0013  -5.9353  -5.9318  -5.9087  -5.9071
    -0.7528  -0.7518  -0.7174  -0.7163  -0.6792  -0.6790   0.3842   0.3862
     0.4234   0.4256   0.4964   0.4971   2.3410   2.3486   2.5546   2.5644
     2.7759   2.7779   3.7778   3.7886   4.0119   4.0128   4.0152   4.0207
     4.0212   4.0529   4.2091   4.2218   4.2953   4.2994   4.3572   4.3624
     4.4385   4.4429   4.5201   4.5420   4.8754   4.8991   5.0560   5.0618
     5.0862   5.1073

     occupation numbers 
     1.0000   1.0000   1.0000   1.0000   1.0000   1.0000   1.0000   1.0000
     1.0000   1.0000   1.0000   1.0000   1.0000   1.0000   1.0000   1.0000
     1.0000   1.0000   1.0000   1.0000   1.0000   1.0000   1.0000   1.0000
     1.0000   1.0000   1.0000   1.0000   1.0000   1.0000   1.0000   1.0000
     1.0000   1.0000   1.0000   1.0000   1.0000   1.0000   1.0000   1.0000
     1.0000   1.0000   1.0000   1.0000   1.0000   1.0000   1.0000   1.0000
     1.0000   1.0000   1.0000   1.0000   1.0000   1.0000   1.0000   1.0000
     1.0000   1.0000   1.0000   1.0000   1.0000   1.0000   1.0000   1.0000
     1.0000   1.0000   1.0000   1.0000   1.0000   1.0000   1.0000   1.0000
     1.0000   1.0000   1.0000   1.0000   1.0000   1.0000   1.0000   1.0000
     1.0000   1.0000   1.0000   1.0000   1.0000   1.0000   1.0000   1.0000
     1.0000   1.0000   1.0000   1.0000   1.0000   1.0000   1.0000   1.0000
     1.0000   1.0000   1.0000   1.0000   1.0000   1.0000   1.0000   1.0000
     1.0000   1.0000   1.0000   1.0000   1.0000   1.0000   1.0000   1.0000
     1.0000   1.0000

          k = 0.0000 0.4619 0.0637 ( 60672 PWs)   bands (ev):

    -8.4258  -8.4248  -8.4235  -8.4235  -8.4231  -8.4220  -8.3889  -8.3886
    -8.3880  -8.3863  -8.3863  -8.3859  -8.3145  -8.3143  -8.3142  -8.3137
    -8.3134  -8.3132  -8.2623  -8.2622  -8.2620  -8.2620  -8.2619  -8.2618
    -7.9875  -7.9873  -7.9852  -7.9848  -7.9841  -7.9833  -7.8964  -7.8961
    -7.8945  -7.8944  -7.8941  -7.8940  -7.8409  -7.8408  -7.8407  -7.8407
    -7.8406  -7.8405  -7.7577  -7.7577  -7.7576  -7.7576  -7.7576  -7.7575
    -7.7149  -7.7149  -7.7147  -7.7145  -7.7143  -7.7143  -7.6239  -7.6238
    -7.6238  -7.6238  -7.6237  -7.6236  -6.1614  -6.1590  -6.1584  -6.1560
    -6.0697  -6.0693  -6.0131  -6.0128  -5.9215  -5.9188  -5.9186  -5.9160
    -0.7420  -0.7409  -0.7341  -0.7334  -0.6731  -0.6728   0.3710   0.3720
     0.4504   0.4526   0.4824   0.4841   2.3877   2.3967   2.4618   2.4670
     2.8380   2.8446   3.7194   3.7286   3.9803   3.9909   4.0174   4.0193
     4.0747   4.0973   4.2419   4.2576   4.3424   4.3641   4.3845   4.3903
     4.4202   4.4265   4.4270   4.4521   4.9067   4.9312   4.9884   4.9889
     5.1355   5.1599

     occupation numbers 
     1.0000   1.0000   1.0000   1.0000   1.0000   1.0000   1.0000   1.0000
     1.0000   1.0000   1.0000   1.0000   1.0000   1.0000   1.0000   1.0000
     1.0000   1.0000   1.0000   1.0000   1.0000   1.0000   1.0000   1.0000
     1.0000   1.0000   1.0000   1.0000   1.0000   1.0000   1.0000   1.0000
     1.0000   1.0000   1.0000   1.0000   1.0000   1.0000   1.0000   1.0000
     1.0000   1.0000   1.0000   1.0000   1.0000   1.0000   1.0000   1.0000
     1.0000   1.0000   1.0000   1.0000   1.0000   1.0000   1.0000   1.0000
     1.0000   1.0000   1.0000   1.0000   1.0000   1.0000   1.0000   1.0000
     1.0000   1.0000   1.0000   1.0000   1.0000   1.0000   1.0000   1.0000
     1.0000   1.0000   1.0000   1.0000   1.0000   1.0000   1.0000   1.0000
     1.0000   1.0000   1.0000   1.0000   1.0000   1.0000   1.0000   1.0000
     1.0000   1.0000   1.0000   1.0000   1.0000   1.0000   1.0000   1.0000
     1.0000   1.0000   1.0000   1.0000   1.0000   1.0000   1.0000   1.0000
     1.0000   1.0000   1.0000   1.0000   1.0000   1.0000   1.0000   1.0000
     1.0000   1.0000

          k = 0.0000 0.5389-0.0000 ( 60658 PWs)   bands (ev):

    -8.4291  -8.4290  -8.4279  -8.4267  -8.4263  -8.4260  -8.3976  -8.3968
    -8.3966  -8.3962  -8.3949  -8.3943  -8.3154  -8.3152  -8.3151  -8.3150
    -8.3145  -8.3144  -8.2625  -8.2624  -8.2624  -8.2623  -8.2623  -8.2623
    -7.9894  -7.9891  -7.9879  -7.9869  -7.9869  -7.9864  -7.8958  -7.8958
    -7.8946  -7.8945  -7.8941  -7.8941  -7.8405  -7.8405  -7.8404  -7.8404
    -7.8404  -7.8403  -7.7565  -7.7564  -7.7564  -7.7564  -7.7564  -7.7563
    -7.7145  -7.7144  -7.7143  -7.7141  -7.7141  -7.7140  -7.6201  -7.6200
    -7.6199  -7.6199  -7.6198  -7.6198  -5.9928  -5.9912  -5.9756  -5.9723
[...]
     4.8952   4.9161

     occupation numbers 
     1.0000   1.0000   1.0000   1.0000   1.0000   1.0000   1.0000   1.0000
     1.0000   1.0000   1.0000   1.0000   1.0000   1.0000   1.0000   1.0000
     1.0000   1.0000   1.0000   1.0000   1.0000   1.0000   1.0000   1.0000
     1.0000   1.0000   1.0000   1.0000   1.0000   1.0000   1.0000   1.0000
     1.0000   1.0000   1.0000   1.0000   1.0000   1.0000   1.0000   1.0000
     1.0000   1.0000   1.0000   1.0000   1.0000   1.0000   1.0000   1.0000
     1.0000   1.0000   1.0000   1.0000   1.0000   1.0000   1.0000   1.0000
     1.0000   1.0000   1.0000   1.0000   1.0000   1.0000   1.0000   1.0000
     1.0000   1.0000   1.0000   1.0000   1.0000   1.0000   1.0000   1.0000
     1.0000   1.0000   1.0000   1.0000   1.0000   1.0000   1.0000   1.0000
     1.0000   1.0000   1.0000   1.0000   1.0000   1.0000   1.0000   1.0000
     1.0000   1.0000   1.0000   1.0000   1.0000   1.0000   1.0000   1.0000
     1.0000   1.0000   1.0000   1.0000   1.0000   1.0000   1.0000   1.0000
     1.0000   1.0000   1.0000   1.0000   1.0000   1.0000   1.0000   1.0000
     1.0000   1.0000

          k =-0.1333-0.5389 0.0637 ( 60619 PWs)   bands (ev):

    -8.4373  -8.4355  -8.4353  -8.4184  -8.4166  -8.4164  -8.4014  -8.4012
    -8.4006  -8.3978  -8.3976  -8.3968  -8.3442  -8.3441  -8.3440  -8.2817
    -8.2817  -8.2816  -8.2691  -8.2690  -8.2686  -8.2477  -8.2476  -8.2475
    -8.0334  -8.0331  -8.0307  -7.9575  -7.9574  -7.9562  -7.9088  -7.9081
    -7.9081  -7.9057  -7.9046  -7.9045  -7.8498  -7.8498  -7.8495  -7.8074
    -7.8073  -7.8073  -7.7567  -7.7566  -7.7566  -7.7549  -7.7549  -7.7549
    -7.7297  -7.7297  -7.7293  -7.7085  -7.7084  -7.7083  -7.6211  -7.6211
    -7.6210  -7.6173  -7.6173  -7.6172  -5.9290  -5.9185  -5.8925  -5.8823
    -5.8793  -5.8691  -5.7711  -5.7660  -5.7575  -5.7525  -5.7185  -5.7146
    -0.9096  -0.9090  -0.8850  -0.8837  -0.8794  -0.8537   0.1432   0.1831
     0.1845   0.2080   0.2256   0.2513   2.5701   2.5841   2.6297   2.6325
     2.6335   2.6992   3.2879   3.3625   3.3796   3.3984   3.4285   3.4411
     3.4492   3.4927   3.5303   3.5654   3.5864   3.5904   4.2464   4.2763
     4.3593   4.3894   4.4119   4.4412   4.6391   4.6738   4.8032   4.8352
     4.9035   4.9214

     occupation numbers 
     1.0000   1.0000   1.0000   1.0000   1.0000   1.0000   1.0000   1.0000
     1.0000   1.0000   1.0000   1.0000   1.0000   1.0000   1.0000   1.0000
     1.0000   1.0000   1.0000   1.0000   1.0000   1.0000   1.0000   1.0000
     1.0000   1.0000   1.0000   1.0000   1.0000   1.0000   1.0000   1.0000
     1.0000   1.0000   1.0000   1.0000   1.0000   1.0000   1.0000   1.0000
     1.0000   1.0000   1.0000   1.0000   1.0000   1.0000   1.0000   1.0000
     1.0000   1.0000   1.0000   1.0000   1.0000   1.0000   1.0000   1.0000
     1.0000   1.0000   1.0000   1.0000   1.0000   1.0000   1.0000   1.0000
     1.0000   1.0000   1.0000   1.0000   1.0000   1.0000   1.0000   1.0000
     1.0000   1.0000   1.0000   1.0000   1.0000   1.0000   1.0000   1.0000
     1.0000   1.0000   1.0000   1.0000   1.0000   1.0000   1.0000   1.0000
     1.0000   1.0000   1.0000   1.0000   1.0000   1.0000   1.0000   1.0000
     1.0000   1.0000   1.0000   1.0000   1.0000   1.0000   1.0000   1.0000
     1.0000   1.0000   1.0000   1.0000   1.0000   1.0000   1.0000   1.0000
     1.0000   1.0000

          k =-0.2000-0.4234 0.0318 ( 60659 PWs)   bands (ev):

    -8.4348  -8.4332  -8.4326  -8.4112  -8.4102  -8.4097  -8.3927  -8.3924
    -8.3923  -8.3868  -8.3867  -8.3859  -8.3499  -8.3498  -8.3497  -8.2804
    -8.2804  -8.2803  -8.2604  -8.2603  -8.2600  -8.2436  -8.2436  -8.2435
    -8.0444  -8.0428  -8.0396  -7.9475  -7.9469  -7.9455  -7.9182  -7.9168
    -7.9160  -7.9108  -7.9100  -7.9096  -7.8445  -7.8444  -7.8442  -7.8003
    -7.8003  -7.8003  -7.7582  -7.7582  -7.7581  -7.7559  -7.7559  -7.7558
    -7.7356  -7.7353  -7.7348  -7.7087  -7.7086  -7.7085  -7.6257  -7.6256
    -7.6256  -7.6212  -7.6212  -7.6211  -6.1221  -6.1079  -6.0800  -6.0667
    -6.0439  -6.0311  -5.9375  -5.9305  -5.8996  -5.8930  -5.8539  -5.8485
    -0.6289  -0.5990  -0.5933  -0.5779  -0.5631  -0.5483   0.5847   0.5955
     0.6450   0.6513   0.6537   0.7116   2.5340   2.5639   2.6194   2.6789
     2.6891   2.7555   2.9082   2.9341   2.9616   3.0072   3.1113   3.1709
     3.1915   3.2488   3.2858   3.2950   3.3575   3.3625   4.0390   4.0512
     4.3459   4.3636   4.7456   4.7718   5.0473   5.0792   5.1644   5.1925
     5.1996   5.2434

     occupation numbers 
     1.0000   1.0000   1.0000   1.0000   1.0000   1.0000   1.0000   1.0000
     1.0000   1.0000   1.0000   1.0000   1.0000   1.0000   1.0000   1.0000
     1.0000   1.0000   1.0000   1.0000   1.0000   1.0000   1.0000   1.0000
     1.0000   1.0000   1.0000   1.0000   1.0000   1.0000   1.0000   1.0000
     1.0000   1.0000   1.0000   1.0000   1.0000   1.0000   1.0000   1.0000
     1.0000   1.0000   1.0000   1.0000   1.0000   1.0000   1.0000   1.0000
     1.0000   1.0000   1.0000   1.0000   1.0000   1.0000   1.0000   1.0000
     1.0000   1.0000   1.0000   1.0000   1.0000   1.0000   1.0000   1.0000
     1.0000   1.0000   1.0000   1.0000   1.0000   1.0000   1.0000   1.0000
     1.0000   1.0000   1.0000   1.0000   1.0000   1.0000   1.0000   1.0000
     1.0000   1.0000   1.0000   1.0000   1.0000   1.0000   1.0000   1.0000
     1.0000   1.0000   1.0000   1.0000   1.0000   1.0000   1.0000   1.0000
     1.0000   1.0000   1.0000   1.0000   1.0000   1.0000   1.0000   1.0000
     1.0000   1.0000   1.0000   1.0000   1.0000   1.0000   1.0000   1.0000
     1.0000   1.0000

          k =-0.2000-0.4234 0.0637 ( 60655 PWs)   bands (ev):

    -8.4345  -8.4338  -8.4323  -8.4110  -8.4105  -8.4095  -8.3927  -8.3925
    -8.3923  -8.3870  -8.3864  -8.3860  -8.3499  -8.3498  -8.3496  -8.2804
    -8.2804  -8.2803  -8.2605  -8.2602  -8.2600  -8.2436  -8.2435  -8.2435
    -8.0450  -8.0417  -8.0402  -7.9478  -7.9464  -7.9457  -7.9179  -7.9173
    -7.9157  -7.9107  -7.9103  -7.9095  -7.8446  -7.8444  -7.8442  -7.8003
    -7.8003  -7.8003  -7.7582  -7.7582  -7.7581  -7.7559  -7.7558  -7.7558
    -7.7357  -7.7351  -7.7349  -7.7087  -7.7086  -7.7085  -7.6257  -7.6257
    -7.6255  -7.6212  -7.6212  -7.6211  -6.1148  -6.1008  -6.0979  -6.0842
    -6.0244  -6.0115  -5.9573  -5.9511  -5.8804  -5.8743  -5.8618  -5.8562
    -0.6298  -0.5998  -0.5888  -0.5815  -0.5593  -0.5514   0.5807   0.6008
     0.6390   0.6500   0.6616   0.7098   2.5732   2.5900   2.6072   2.6463
     2.6694   2.7460   2.9026   2.9130   2.9312   2.9448   3.1818   3.1926
     3.2591   3.2597   3.3098   3.3330   3.3368   3.3679   3.9062   3.9146
     4.5099   4.5307   4.6722   4.6969   5.0533   5.0833   5.1528   5.1965
     5.2010   5.2357

     occupation numbers 
     1.0000   1.0000   1.0000   1.0000   1.0000   1.0000   1.0000   1.0000
     1.0000   1.0000   1.0000   1.0000   1.0000   1.0000   1.0000   1.0000
     1.0000   1.0000   1.0000   1.0000   1.0000   1.0000   1.0000   1.0000
     1.0000   1.0000   1.0000   1.0000   1.0000   1.0000   1.0000   1.0000
     1.0000   1.0000   1.0000   1.0000   1.0000   1.0000   1.0000   1.0000
     1.0000   1.0000   1.0000   1.0000   1.0000   1.0000   1.0000   1.0000
     1.0000   1.0000   1.0000   1.0000   1.0000   1.0000   1.0000   1.0000
     1.0000   1.0000   1.0000   1.0000   1.0000   1.0000   1.0000   1.0000
     1.0000   1.0000   1.0000   1.0000   1.0000   1.0000   1.0000   1.0000
     1.0000   1.0000   1.0000   1.0000   1.0000   1.0000   1.0000   1.0000
     1.0000   1.0000   1.0000   1.0000   1.0000   1.0000   1.0000   1.0000
     1.0000   1.0000   1.0000   1.0000   1.0000   1.0000   1.0000   1.0000
     1.0000   1.0000   1.0000   1.0000   1.0000   1.0000   1.0000   1.0000
     1.0000   1.0000   1.0000   1.0000   1.0000   1.0000   1.0000   1.0000
     1.0000   1.0000

          k =-0.2000-0.5004 0.0318 ( 60665 PWs)   bands (ev):

    -8.4385  -8.4367  -8.4367  -8.4143  -8.4128  -8.4127  -8.4024  -8.4021
    -8.4019  -8.3976  -8.3973  -8.3962  -8.3522  -8.3520  -8.3519  -8.2809
    -8.2809  -8.2808  -8.2572  -8.2571  -8.2569  -8.2418  -8.2418  -8.2417
    -8.0514  -8.0513  -8.0486  -7.9491  -7.9491  -7.9481  -7.9184  -7.9173
    -7.9172  -7.9136  -7.9129  -7.9128  -7.8433  -7.8432  -7.8430  -7.7964
    -7.7963  -7.7963  -7.7567  -7.7566  -7.7566  -7.7549  -7.7549  -7.7548
    -7.7369  -7.7368  -7.7364  -7.7087  -7.7087  -7.7086  -7.6219  -7.6219
    -7.6218  -7.6170  -7.6169  -7.6169  -5.9161  -5.9025  -5.8756  -5.8668
    -5.8629  -5.8541  -5.7541  -5.7481  -5.7451  -5.7392  -5.7024  -5.6975
    -0.8247  -0.7937  -0.7911  -0.7879  -0.7571  -0.7534   0.2857   0.3121
     0.3379   0.3483   0.3789   0.4035   2.3396   2.3841   2.3923   2.4261
     2.4685   2.4775   2.8554   2.9370   2.9695   2.9761   3.0437   3.0859
     3.0904   3.1187   3.3366   3.3546   3.4478   3.4602   4.3134   4.3380
     4.3961   4.4157   4.6186   4.6339   4.6544   4.6712   4.8177   4.8571
     4.9445   4.9828

     occupation numbers 
     1.0000   1.0000   1.0000   1.0000   1.0000   1.0000   1.0000   1.0000
     1.0000   1.0000   1.0000   1.0000   1.0000   1.0000   1.0000   1.0000
     1.0000   1.0000   1.0000   1.0000   1.0000   1.0000   1.0000   1.0000
     1.0000   1.0000   1.0000   1.0000   1.0000   1.0000   1.0000   1.0000
     1.0000   1.0000   1.0000   1.0000   1.0000   1.0000   1.0000   1.0000
     1.0000   1.0000   1.0000   1.0000   1.0000   1.0000   1.0000   1.0000
     1.0000   1.0000   1.0000   1.0000   1.0000   1.0000   1.0000   1.0000
     1.0000   1.0000   1.0000   1.0000   1.0000   1.0000   1.0000   1.0000
     1.0000   1.0000   1.0000   1.0000   1.0000   1.0000   1.0000   1.0000
     1.0000   1.0000   1.0000   1.0000   1.0000   1.0000   1.0000   1.0000
     1.0000   1.0000   1.0000   1.0000   1.0000   1.0000   1.0000   1.0000
     1.0000   1.0000   1.0000   1.0000   1.0000   1.0000   1.0000   1.0000
     1.0000   1.0000   1.0000   1.0000   1.0000   1.0000   1.0000   1.0000
     1.0000   1.0000   1.0000   1.0000   1.0000   1.0000   1.0000   1.0000
     1.0000   1.0000

          k =-0.2000-0.5004 0.0637 ( 60647 PWs)   bands (ev):

    -8.4384  -8.4372  -8.4363  -8.4143  -8.4132  -8.4124  -8.4024  -8.4021
    -8.4019  -8.3976  -8.3972  -8.3962  -8.3522  -8.3520  -8.3519  -8.2809
    -8.2809  -8.2808  -8.2572  -8.2571  -8.2569  -8.2418  -8.2417  -8.2417
    -8.0520  -8.0505  -8.0488  -7.9493  -7.9488  -7.9482  -7.9183  -7.9176
    -7.9170  -7.9135  -7.9130  -7.9127  -7.8433  -7.8432  -7.8430  -7.7964
    -7.7963  -7.7963  -7.7567  -7.7566  -7.7566  -7.7549  -7.7548  -7.7548
    -7.7370  -7.7367  -7.7365  -7.7087  -7.7087  -7.7086  -7.6219  -7.6219
    -7.6218  -7.6170  -7.6169  -7.6169  -5.9128  -5.8994  -5.8898  -5.8769
    -5.8527  -5.8400  -5.7685  -5.7628  -5.7303  -5.7246  -5.7058  -5.7008
    -0.8224  -0.8025  -0.7853  -0.7846  -0.7660  -0.7470   0.2817   0.3243
     0.3296   0.3448   0.3916   0.3942   2.3436   2.3680   2.4067   2.4304
     2.4524   2.4928   2.8383   2.9517   2.9526   2.9682   3.0635   3.0739
     3.1242   3.1585   3.2383   3.2629   3.5403   3.5514   4.1946   4.2125
     4.5207   4.5440   4.5733   4.6090   4.6502   4.6874   4.8480   4.8873
     4.9131   4.9501

     occupation numbers 
     1.0000   1.0000   1.0000   1.0000   1.0000   1.0000   1.0000   1.0000
     1.0000   1.0000   1.0000   1.0000   1.0000   1.0000   1.0000   1.0000
     1.0000   1.0000   1.0000   1.0000   1.0000   1.0000   1.0000   1.0000
     1.0000   1.0000   1.0000   1.0000   1.0000   1.0000   1.0000   1.0000
     1.0000   1.0000   1.0000   1.0000   1.0000   1.0000   1.0000   1.0000
     1.0000   1.0000   1.0000   1.0000   1.0000   1.0000   1.0000   1.0000
     1.0000   1.0000   1.0000   1.0000   1.0000   1.0000   1.0000   1.0000
     1.0000   1.0000   1.0000   1.0000   1.0000   1.0000   1.0000   1.0000
     1.0000   1.0000   1.0000   1.0000   1.0000   1.0000   1.0000   1.0000
     1.0000   1.0000   1.0000   1.0000   1.0000   1.0000   1.0000   1.0000
     1.0000   1.0000   1.0000   1.0000   1.0000   1.0000   1.0000   1.0000
     1.0000   1.0000   1.0000   1.0000   1.0000   1.0000   1.0000   1.0000
     1.0000   1.0000   1.0000   1.0000   1.0000   1.0000   1.0000   1.0000
     1.0000   1.0000   1.0000   1.0000   1.0000   1.0000   1.0000   1.0000
     1.0000   1.0000

          k =-0.2667-0.5389 0.0318 ( 60625 PWs)   bands (ev):

    -8.4400  -8.4390  -8.4389  -8.4138  -8.4128  -8.4127  -8.4081  -8.4079
    -8.4077  -8.4024  -8.4023  -8.4013  -8.3571  -8.3569  -8.3567  -8.2827
    -8.2826  -8.2826  -8.2455  -8.2455  -8.2454  -8.2372  -8.2372  -8.2372
    -8.0663  -8.0663  -8.0648  -7.9459  -7.9459  -7.9454  -7.9264  -7.9258
    -7.9258  -7.9174  -7.9171  -7.9171  -7.8375  -7.8374  -7.8373  -7.7885
    -7.7885  -7.7885  -7.7558  -7.7557  -7.7557  -7.7552  -7.7552  -7.7550
    -7.7414  -7.7414  -7.7413  -7.7094  -7.7094  -7.7094  -7.6204  -7.6204
    -7.6203  -7.6148  -7.6147  -7.6147  -5.7796  -5.7653  -5.7539  -5.7533
    -5.7401  -5.7395  -5.6425  -5.6420  -5.6371  -5.6366  -5.6154  -5.6104
    -0.8545  -0.8445  -0.8428  -0.8041  -0.7936  -0.7927   0.2506   0.2635
     0.2672   0.3380   0.3543   0.3562   1.9908   2.0045   2.0361   2.0880
     2.1007   2.1360   2.4436   2.4931   2.5118   2.5728   2.6193   2.6370
     3.3738   3.3836   3.6214   3.6291   3.6540   3.6641   4.3292   4.3396
     4.3950   4.4242   4.4508   4.5140   4.5269   4.5881   4.6193   4.6820
     4.8110   4.8549

     occupation numbers 
     1.0000   1.0000   1.0000   1.0000   1.0000   1.0000   1.0000   1.0000
     1.0000   1.0000   1.0000   1.0000   1.0000   1.0000   1.0000   1.0000
     1.0000   1.0000   1.0000   1.0000   1.0000   1.0000   1.0000   1.0000
     1.0000   1.0000   1.0000   1.0000   1.0000   1.0000   1.0000   1.0000
     1.0000   1.0000   1.0000   1.0000   1.0000   1.0000   1.0000   1.0000
     1.0000   1.0000   1.0000   1.0000   1.0000   1.0000   1.0000   1.0000
     1.0000   1.0000   1.0000   1.0000   1.0000   1.0000   1.0000   1.0000
     1.0000   1.0000   1.0000   1.0000   1.0000   1.0000   1.0000   1.0000
     1.0000   1.0000   1.0000   1.0000   1.0000   1.0000   1.0000   1.0000
     1.0000   1.0000   1.0000   1.0000   1.0000   1.0000   1.0000   1.0000
     1.0000   1.0000   1.0000   1.0000   1.0000   1.0000   1.0000   1.0000
     1.0000   1.0000   1.0000   1.0000   1.0000   1.0000   1.0000   1.0000
     1.0000   1.0000   1.0000   1.0000   1.0000   1.0000   1.0000   1.0000
     1.0000   1.0000   1.0000   1.0000   1.0000   1.0000   1.0000   1.0000
     1.0000   1.0000

          k =-0.2667-0.5389 0.0637 ( 60628 PWs)   bands (ev):

    -8.4400  -8.4392  -8.4387  -8.4137  -8.4130  -8.4125  -8.4082  -8.4079
    -8.4077  -8.4025  -8.4021  -8.4014  -8.3570  -8.3569  -8.3567  -8.2827
    -8.2826  -8.2826  -8.2455  -8.2455  -8.2454  -8.2372  -8.2372  -8.2372
    -8.0666  -8.0659  -8.0649  -7.9460  -7.9458  -7.9454  -7.9264  -7.9260
    -7.9257  -7.9174  -7.9172  -7.9170  -7.8375  -7.8374  -7.8373  -7.7885
    -7.7885  -7.7885  -7.7558  -7.7557  -7.7557  -7.7552  -7.7551  -7.7550
    -7.7415  -7.7414  -7.7413  -7.7094  -7.7094  -7.7094  -7.6204  -7.6204
    -7.6203  -7.6148  -7.6147  -7.6147  -5.7782  -5.7640  -5.7618  -5.7479
    -5.7463  -5.7325  -5.6497  -5.6444  -5.6338  -5.6285  -5.6168  -5.6118
    -0.8543  -0.8456  -0.8419  -0.8037  -0.7955  -0.7912   0.2506   0.2637
     0.2670   0.3385   0.3519   0.3580   1.9951   1.9992   2.0375   2.0909
     2.0970   2.1375   2.4405   2.4988   2.5076   2.5702   2.6245   2.6330
     3.3984   3.4102   3.5316   3.5378   3.7303   3.7410   4.2819   4.3574
     4.4111   4.4148   4.4737   4.4847   4.5055   4.5630   4.6444   4.7065
     4.8140   4.8582

     occupation numbers 
     1.0000   1.0000   1.0000   1.0000   1.0000   1.0000   1.0000   1.0000
     1.0000   1.0000   1.0000   1.0000   1.0000   1.0000   1.0000   1.0000
     1.0000   1.0000   1.0000   1.0000   1.0000   1.0000   1.0000   1.0000
     1.0000   1.0000   1.0000   1.0000   1.0000   1.0000   1.0000   1.0000
     1.0000   1.0000   1.0000   1.0000   1.0000   1.0000   1.0000   1.0000
     1.0000   1.0000   1.0000   1.0000   1.0000   1.0000   1.0000   1.0000
     1.0000   1.0000   1.0000   1.0000   1.0000   1.0000   1.0000   1.0000
     1.0000   1.0000   1.0000   1.0000   1.0000   1.0000   1.0000   1.0000
     1.0000   1.0000   1.0000   1.0000   1.0000   1.0000   1.0000   1.0000
     1.0000   1.0000   1.0000   1.0000   1.0000   1.0000   1.0000   1.0000
     1.0000   1.0000   1.0000   1.0000   1.0000   1.0000   1.0000   1.0000
     1.0000   1.0000   1.0000   1.0000   1.0000   1.0000   1.0000   1.0000
     1.0000   1.0000   1.0000   1.0000   1.0000   1.0000   1.0000   1.0000
     1.0000   1.0000   1.0000   1.0000   1.0000   1.0000   1.0000   1.0000
     1.0000   1.0000

     highest occupied level (ev):     6.9117

!    total energy              =    -899.46059359 Ry
     Harris-Foulkes estimate   =    -899.46059359 Ry
     estimated scf accuracy    <          3.6E-10 Ry

     The total energy is the sum of the following terms:

     one-electron contribution =    -635.02138133 Ry
     hartree contribution      =     387.14642574 Ry
     xc contribution           =    -130.92021051 Ry
     ewald contribution        =    -520.66542748 Ry

     convergence has been achieved in  13 iterations

     Writing output data file GaSegamma.save
 
     init_run     :     88.08s CPU     92.24s WALL (       1 calls)
     electrons    :   3405.88s CPU   3560.49s WALL (       1 calls)

     Called by init_run:
     wfcinit      :     87.39s CPU     91.27s WALL (       1 calls)
     wfcinit:atom :      0.32s CPU      0.52s WALL (     119 calls)
     wfcinit:wfcr :     85.15s CPU     88.55s WALL (     119 calls)
     potinit      :      0.14s CPU      0.15s WALL (       1 calls)

     Called by electrons:
     c_bands      :   3052.48s CPU   3196.90s WALL (      14 calls)
     sum_band     :    352.83s CPU    362.81s WALL (      14 calls)
     v_of_rho     :      0.29s CPU      0.31s WALL (      14 calls)
     v_h          :      0.02s CPU      0.03s WALL (      14 calls)
     v_xc         :      0.26s CPU      0.29s WALL (      14 calls)
     mix_rho      :      0.19s CPU      0.26s WALL (      14 calls)

     Called by c_bands:
     init_us_2    :     10.19s CPU     10.86s WALL (    3451 calls)
     cegterg      :   2806.10s CPU   2948.66s WALL (    1666 calls)

     Called by sum_band:

     Called by *egterg:
     h_psi        :   2148.97s CPU   2218.00s WALL (    7310 calls)
     g_psi        :      8.28s CPU      8.28s WALL (    5525 calls)
     cdiaghg      :    287.25s CPU    326.05s WALL (    7072 calls)
     cegterg:over :    171.25s CPU    177.61s WALL (    5525 calls)
     cegterg:upda :    146.27s CPU    159.49s WALL (    5525 calls)
     cegterg:last :     65.71s CPU     68.31s WALL (    1666 calls)
     cdiaghg:chol :     12.78s CPU     12.81s WALL (    7072 calls)
     cdiaghg:inve :     10.43s CPU     10.47s WALL (    7072 calls)
     cdiaghg:para :     70.62s CPU    104.52s WALL (   14144 calls)

     Called by h_psi:
     h_psi:pot    :   2139.30s CPU   2208.33s WALL (    7310 calls)
     h_psi:calbec :    203.80s CPU    211.50s WALL (    7310 calls)
     vloc_psi     :   1722.45s CPU   1776.02s WALL (    7310 calls)
     add_vuspsi   :    213.02s CPU    220.77s WALL (    7310 calls)

     General routines
     calbec       :    203.79s CPU    211.48s WALL (    7310 calls)
     fft          :      0.35s CPU      0.36s WALL (     239 calls)
     fftw         :   1964.78s CPU   2027.36s WALL ( 2449952 calls)
     davcio       :      0.00s CPU      0.38s WALL (     119 calls)
 
     Parallel routines
     fft_scatter  :   1128.84s CPU   1145.61s WALL ( 2450191 calls)
 
     PWSCF        :     0h58m CPU        1h 1m WALL

 
   This run was terminated on:  19:45:21   6Apr2022            

=------------------------------------------------------------------------------=
   JOB DONE.
=------------------------------------------------------------------------------=
