
     Program BANDS v.6.1 (svn rev. 13369) starts on  7Apr2022 at 11:24:41 

     This program is part of the open-source Quantum ESPRESSO suite
     for quantum simulation of materials; please cite
         "P. Giannozzi et al., J. Phys.:Condens. Matter 21 395502 (2009);
          URL http://www.quantum-espresso.org", 
     in publications or presentations arising from this work. More details at
     http://www.quantum-espresso.org/quote

     Parallel version (MPI), running on    48 processors
     R & G space division:  proc/nbgrp/npool/nimage =      48

     Reading data from directory:
     /share/inl/marcel/TB-SO/GaSgamma_outdir/GaSgamma.save

   Info: using nr1, nr2, nr3 values from input

   Info: using nr1, nr2, nr3 values from input

     IMPORTANT: XC functional enforced from input :
     Exchange-correlation      = SLA+PW+PSX+PSC ( 1  4 10  8 0 0)
     Any further DFT definition will be discarded
     Please, verify this is what you really want

 
     Parallelization info
     --------------------
     sticks:   dense  smooth     PW     G-vecs:    dense   smooth      PW
     Min          39      39     10                 8529     8529    1210
     Max          40      40     11                 8566     8566    1257
     Sum        1891    1891    511               410167   410167   59325
 
     high-symmetry point:  0.0000 0.0000 0.0810   x coordinate   0.0000
     high-symmetry point:  0.0000 0.5774 0.0810   x coordinate   0.5774
     high-symmetry point:  0.3333 0.5773 0.0810   x coordinate   0.9107
     high-symmetry point:  0.0000 0.0000 0.0810   x coordinate   1.5773
     high-symmetry point:  0.0000 0.0000 0.0000   x coordinate   1.6584
     high-symmetry point:  0.0000 0.5774-0.0000   x coordinate   2.2357
     high-symmetry point:  0.3333 0.5773-0.0000   x coordinate   2.5691
     high-symmetry point:  0.0000 0.0000 0.0000   x coordinate   3.2357
     high-symmetry point:  0.0000 0.5774 0.0810   x coordinate   3.2357
     high-symmetry point:  0.0000 0.5774-0.0000   x coordinate   3.3168
     high-symmetry point:  0.3333 0.5773 0.0810   x coordinate   3.3168
     high-symmetry point:  0.3333 0.5773-0.0000   x coordinate   3.3978

     Plottable bands (eV) written to file GaSgamma.bands.dat.gnu
     Bands written to file GaSgamma.bands.dat

 **************************************************************************

                    xk=(   0.00000,   0.00000,   0.08105  )

     double point group C_3v (3m)  
     there are  6 classes and  3 irreducible representations
     the character table:

       E     -E    2C3   -2C3  3s_v  -3s_v
                                          
G_4    2.00 -2.00  1.00 -1.00  0.00  0.00
G_5    1.00 -1.00 -1.00  1.00  0.00  0.00
G_6    1.00 -1.00 -1.00  1.00  0.00  0.00

     imaginary part

       E     -E    2C3   -2C3  3s_v  -3s_v
                                          
G_4    0.00  0.00  0.00  0.00  0.00  0.00
G_5    0.00  0.00  0.00  0.00  1.00 -1.00
G_6    0.00  0.00  0.00  0.00 -1.00  1.00

     the symmetry operations in each class and the name of the first element:

     E             1
                                                                 
     -E           -1
                                                                 
     2C3           2    3
                                                                 
     -2C3         -2   -3
                                                                 
     3s_v          4   -5   -6
                                                                 
     3s_v          5    6   -4
                                                                 

     Band symmetry, C_3v (3m)   double point group:

     e(  1 -  2) =     -7.65913  eV     2   --> G_4   L_6      
     e(  3 -  4) =     -7.65834  eV     2   --> G_4   L_6      
     e(  5 -  6) =     -7.65428  eV     2   --> G_4   L_6      
     e(  7 -  8) =     -7.48759  eV     2   --> G_4   L_6      
     e(  9 - 10) =     -7.48219  eV     2   --> G_4   L_6      
     e( 11 - 12) =     -7.48160  eV     2   --> G_4   L_6      
     e( 13 - 14) =     -7.44920  eV     2   --> G_5   L_4      
     e( 13 - 14) =     -7.44920  eV     2   --> G_6   L_5      
     e( 15 - 16) =     -7.44876  eV     2   --> G_5   L_4      
     e( 15 - 16) =     -7.44876  eV     2   --> G_6   L_5      
     e( 17 - 18) =     -7.44838  eV     2   --> G_5   L_4      
     e( 17 - 18) =     -7.44838  eV     2   --> G_6   L_5      
     e( 19 - 20) =     -7.41923  eV     2   --> G_5   L_4      
     e( 19 - 20) =     -7.41923  eV     2   --> G_6   L_5      
     e( 21 - 22) =     -7.41879  eV     2   --> G_5   L_4      
     e( 21 - 22) =     -7.41879  eV     2   --> G_6   L_5      
     e( 23 - 24) =     -7.41856  eV     2   --> G_5   L_4      
     e( 23 - 24) =     -7.41856  eV     2   --> G_6   L_5      
     e( 25 - 26) =     -7.14610  eV     2   --> G_4   L_6      
     e( 27 - 28) =     -7.11919  eV     2   --> G_4   L_6      
     e( 29 - 30) =     -7.11859  eV     2   --> G_4   L_6      
     e( 31 - 32) =     -7.04685  eV     2   --> G_5   L_4      
     e( 31 - 32) =     -7.04685  eV     2   --> G_6   L_5      
     e( 33 - 34) =     -7.04645  eV     2   --> G_5   L_4      
     e( 33 - 34) =     -7.04645  eV     2   --> G_6   L_5      
     e( 35 - 36) =     -7.04591  eV     2   --> G_5   L_4      
     e( 35 - 36) =     -7.04591  eV     2   --> G_6   L_5      
     e( 37 - 38) =     -7.04194  eV     2   --> G_4   L_6      
     e( 39 - 40) =     -7.04171  eV     2   --> G_4   L_6      
     e( 41 - 42) =     -7.01801  eV     2   --> G_4   L_6      
     e( 43 - 44) =     -6.99748  eV     2   --> G_4   L_6      
     e( 45 - 46) =     -6.99564  eV     2   --> G_4   L_6      
     e( 47 - 48) =     -6.99527  eV     2   --> G_4   L_6      
     e( 49 - 50) =     -6.95439  eV     2   --> G_4   L_6      
     e( 51 - 52) =     -6.95391  eV     2   --> G_4   L_6      
     e( 53 - 54) =     -6.91425  eV     2   --> G_4   L_6      
     e( 55 - 56) =     -6.87154  eV     2   --> G_4   L_6      
     e( 57 - 58) =     -6.87108  eV     2   --> G_4   L_6      
     e( 59 - 60) =     -6.81258  eV     2   --> G_4   L_6      
     e( 61 - 62) =     -6.77990  eV     2   --> G_5   L_4      
     e( 61 - 62) =     -6.77990  eV     2   --> G_6   L_5      
     e( 63 - 66) =     -6.77948  eV     4   -->   2 G_5   L_4      
     e( 63 - 66) =     -6.77948  eV     4   -->   2 G_6   L_5      
     e( 67 - 68) =     -6.33615  eV     2   --> G_4   L_6      
     e( 69 - 70) =     -6.21022  eV     2   --> G_4   L_6      
     e( 71 - 72) =     -6.20998  eV     2   --> G_4   L_6      
     e( 73 - 74) =      0.32665  eV     2   --> G_4   L_6      
     e( 75 - 76) =      0.32793  eV     2   --> G_4   L_6      
     e( 77 - 78) =      0.71791  eV     2   --> G_4   L_6      
     e( 79 - 80) =      3.13453  eV     2   --> G_4   L_6      
     e( 81 - 82) =      4.07078  eV     2   --> G_4   L_6      
     e( 83 - 84) =      4.07258  eV     2   --> G_4   L_6      
     e( 85 - 86) =      5.62454  eV     2   --> G_4   L_6      
     e( 87 - 88) =      5.67756  eV     2   --> G_4   L_6      
     e( 89 - 90) =      5.67848  eV     2   --> G_4   L_6      
     e( 91 - 92) =      5.69718  eV     2   --> G_5   L_4      
     e( 91 - 92) =      5.69718  eV     2   --> G_6   L_5      
     e( 93 - 94) =      5.75014  eV     2   --> G_5   L_4      
     e( 93 - 94) =      5.75014  eV     2   --> G_6   L_5      
     e( 95 - 96) =      5.75159  eV     2   --> G_5   L_4      
     e( 95 - 96) =      5.75159  eV     2   --> G_6   L_5      
     e( 97 - 98) =      5.83130  eV     2   --> G_4   L_6      
     e( 99 -100) =      5.83172  eV     2   --> G_4   L_6      
     e(101 -102) =      5.89176  eV     2   --> G_4   L_6      
     e(103 -104) =      5.90370  eV     2   --> G_5   L_4      
     e(103 -104) =      5.90370  eV     2   --> G_6   L_5      
     e(105 -106) =      5.90495  eV     2   --> G_5   L_4      
     e(105 -106) =      5.90495  eV     2   --> G_6   L_5      
     e(107 -108) =      5.96390  eV     2   --> G_5   L_4      
     e(107 -108) =      5.96390  eV     2   --> G_6   L_5      
     e(109 -110) =      6.68482  eV     2   --> G_4   L_6      
     e(111 -112) =      6.68690  eV     2   --> G_4   L_6      
     e(113 -114) =      7.78949  eV     2   --> G_4   L_6      
     e(115 -116) =      9.31856  eV     2   --> G_4   L_6      
     e(117 -118) =      9.72036  eV     2   --> G_4   L_6      
     e(119 -120) =      9.72087  eV     2   --> G_4   L_6      

 **************************************************************************

 **************************************************************************

                    xk=(   0.00000,   0.02138,   0.08105  )

     double point group C_s (m)    
     there are  4 classes and  2 irreducible representations
     the character table:

       E     -E    s     -s   
                              
G_3    1.00 -1.00  0.00  0.00
G_4    1.00 -1.00  0.00  0.00

     imaginary part

       E     -E    s     -s   
                              
G_3    0.00  0.00  1.00 -1.00
G_4    0.00  0.00 -1.00  1.00

     the symmetry operations in each class and the name of the first element:

     E             1
                                                                 
     -E           -1
                                                                 
     s             2
                                                                 
     -s           -2
                                                                 

     Band symmetry, C_s (m)     double point group:

     e(  1 -  1) =     -7.65932  eV     1   --> G_3            
     e(  2 -  2) =     -7.65918  eV     1   --> G_4            
     e(  3 -  3) =     -7.65851  eV     1   --> G_3            
     e(  4 -  4) =     -7.65841  eV     1   --> G_4            
     e(  5 -  6) =     -7.65445  eV     2   --> G_3            
     e(  5 -  6) =     -7.65445  eV     2   --> G_4            
     e(  7 -  8) =     -7.48815  eV     2   --> G_3            
     e(  7 -  8) =     -7.48815  eV     2   --> G_4            
     e(  9 - 10) =     -7.48287  eV     2   --> G_3            
     e(  9 - 10) =     -7.48287  eV     2   --> G_4            
     e( 11 - 12) =     -7.48228  eV     2   --> G_3            
     e( 11 - 12) =     -7.48228  eV     2   --> G_4            
     e( 13 - 14) =     -7.44984  eV     2   --> G_3            
     e( 13 - 14) =     -7.44984  eV     2   --> G_4            
     e( 15 - 16) =     -7.44939  eV     2   --> G_3            
     e( 15 - 16) =     -7.44939  eV     2   --> G_4            
     e( 17 - 18) =     -7.44901  eV     2   --> G_3            
     e( 17 - 18) =     -7.44901  eV     2   --> G_4            
     e( 19 - 20) =     -7.41952  eV     2   --> G_3            
     e( 19 - 20) =     -7.41952  eV     2   --> G_4            
     e( 21 - 22) =     -7.41907  eV     2   --> G_3            
     e( 21 - 22) =     -7.41907  eV     2   --> G_4            
     e( 23 - 24) =     -7.41884  eV     2   --> G_3            
     e( 23 - 24) =     -7.41884  eV     2   --> G_4            
     e( 25 - 25) =     -7.14973  eV     1   --> G_4            
     e( 26 - 26) =     -7.14906  eV     1   --> G_3            
     e( 27 - 27) =     -7.12553  eV     1   --> G_4            
     e( 28 - 28) =     -7.12482  eV     1   --> G_3            
     e( 29 - 29) =     -7.12410  eV     1   --> G_4            
     e( 30 - 30) =     -7.12362  eV     1   --> G_3            
     e( 31 - 31) =     -7.05247  eV     1   --> G_3            
     e( 32 - 32) =     -7.05229  eV     1   --> G_4            
     e( 33 - 34) =     -7.04788  eV     2   --> G_3            
     e( 33 - 34) =     -7.04788  eV     2   --> G_4            
     e( 35 - 36) =     -7.04710  eV     2   --> G_3            
     e( 35 - 36) =     -7.04710  eV     2   --> G_4            
     e( 37 - 37) =     -7.03247  eV     1   --> G_3            
     e( 38 - 38) =     -7.03205  eV     1   --> G_4            
     e( 39 - 39) =     -7.02953  eV     1   --> G_3            
     e( 40 - 40) =     -7.02927  eV     1   --> G_4            
     e( 41 - 41) =     -7.01337  eV     1   --> G_3            
     e( 42 - 42) =     -7.01306  eV     1   --> G_4            
     e( 43 - 43) =     -6.99912  eV     1   --> G_3            
     e( 44 - 44) =     -6.99846  eV     1   --> G_4            
     e( 45 - 45) =     -6.99817  eV     1   --> G_3            
     e( 46 - 46) =     -6.99766  eV     1   --> G_3            
     e( 47 - 47) =     -6.99742  eV     1   --> G_4            
     e( 48 - 48) =     -6.99718  eV     1   --> G_4            
     e( 49 - 49) =     -6.94955  eV     1   --> G_4            
     e( 50 - 51) =     -6.94888  eV     2   --> G_3            
     e( 50 - 51) =     -6.94888  eV     2   --> G_4            
     e( 52 - 52) =     -6.94825  eV     1   --> G_3            
     e( 53 - 53) =     -6.91249  eV     1   --> G_4            
     e( 54 - 54) =     -6.91216  eV     1   --> G_3            
     e( 55 - 55) =     -6.87051  eV     1   --> G_3            
     e( 56 - 56) =     -6.87039  eV     1   --> G_4            
     e( 57 - 58) =     -6.87003  eV     2   --> G_3            
     e( 57 - 58) =     -6.87003  eV     2   --> G_4            
     e( 59 - 60) =     -6.80887  eV     2   --> G_3            
     e( 59 - 60) =     -6.80887  eV     2   --> G_4            
     e( 61 - 62) =     -6.77955  eV     2   --> G_3            
     e( 61 - 62) =     -6.77955  eV     2   --> G_4            
     e( 63 - 64) =     -6.77920  eV     2   --> G_3            
     e( 63 - 64) =     -6.77920  eV     2   --> G_4            
     e( 65 - 66) =     -6.77837  eV     2   --> G_3            
     e( 65 - 66) =     -6.77837  eV     2   --> G_4            
     e( 67 - 68) =     -6.33319  eV     2   --> G_3            
     e( 67 - 68) =     -6.33319  eV     2   --> G_4            
     e( 69 - 70) =     -6.20695  eV     2   --> G_3            
     e( 69 - 70) =     -6.20695  eV     2   --> G_4            
     e( 71 - 72) =     -6.20670  eV     2   --> G_3            
     e( 71 - 72) =     -6.20670  eV     2   --> G_4            
     e( 73 - 74) =      0.32970  eV     2   --> G_3            
     e( 73 - 74) =      0.32970  eV     2   --> G_4            
     e( 75 - 76) =      0.33097  eV     2   --> G_3            
     e( 75 - 76) =      0.33097  eV     2   --> G_4            
     e( 77 - 78) =      0.71994  eV     2   --> G_3            
     e( 77 - 78) =      0.71994  eV     2   --> G_4            
     e( 79 - 80) =      3.13724  eV     2   --> G_3            
     e( 79 - 80) =      3.13724  eV     2   --> G_4            
     e( 81 - 82) =      4.06881  eV     2   --> G_3            
     e( 81 - 82) =      4.06881  eV     2   --> G_4            
     e( 83 - 84) =      4.07058  eV     2   --> G_3            
     e( 83 - 84) =      4.07058  eV     2   --> G_4            
     e( 85 - 85) =      5.60629  eV     1   --> G_3            
     e( 86 - 86) =      5.60639  eV     1   --> G_4            
     e( 87 - 87) =      5.65566  eV     1   --> G_4            
     e( 88 - 88) =      5.65585  eV     1   --> G_3            
     e( 89 - 89) =      5.65949  eV     1   --> G_4            
     e( 90 - 90) =      5.65961  eV     1   --> G_3            
     e( 91 - 92) =      5.68127  eV     2   --> G_3            
     e( 91 - 92) =      5.68127  eV     2   --> G_4            
     e( 93 - 93) =      5.73179  eV     1   --> G_4            
     e( 94 - 94) =      5.73280  eV     1   --> G_3            
     e( 95 - 95) =      5.73597  eV     1   --> G_3            
     e( 96 - 96) =      5.73703  eV     1   --> G_4            
     e( 97 - 97) =      5.80604  eV     1   --> G_3            
     e( 98 - 98) =      5.80636  eV     1   --> G_4            
     e( 99 - 99) =      5.81083  eV     1   --> G_3            
     e(100 -100) =      5.81094  eV     1   --> G_4            
     e(101 -101) =      5.86986  eV     1   --> G_3            
     e(102 -102) =      5.87002  eV     1   --> G_4            
     e(103 -103) =      5.88387  eV     1   --> G_4            
     e(104 -104) =      5.88494  eV     1   --> G_3            
     e(105 -105) =      5.88906  eV     1   --> G_3            
     e(106 -106) =      5.89003  eV     1   --> G_4            
     e(107 -108) =      5.94676  eV     2   --> G_3            
     e(107 -108) =      5.94676  eV     2   --> G_4            
     e(109 -110) =      6.70138  eV     2   --> G_3            
     e(109 -110) =      6.70138  eV     2   --> G_4            
     e(111 -112) =      6.70342  eV     2   --> G_3            
     e(111 -112) =      6.70342  eV     2   --> G_4            
     e(113 -113) =      7.78785  eV     1   --> G_4            
     e(114 -114) =      7.78827  eV     1   --> G_3            
     e(115 -115) =      9.34930  eV     1   --> G_3            
     e(116 -116) =      9.34957  eV     1   --> G_4            
     e(117 -117) =      9.74416  eV     1   --> G_4            
     e(118 -118) =      9.74426  eV     1   --> G_3            
     e(119 -119) =      9.74465  eV     1   --> G_4            
     e(120 -120) =      9.74476  eV     1   --> G_3            

 **************************************************************************

 **************************************************************************

                    xk=(   0.00000,   0.04277,   0.08105  )

     Band symmetry, C_s (m)     double point group:

     e(  1 -  1) =     -7.65974  eV     1   --> G_3            
     e(  2 -  2) =     -7.65947  eV     1   --> G_4            
     e(  3 -  3) =     -7.65892  eV     1   --> G_3            
     e(  4 -  4) =     -7.65872  eV     1   --> G_4            
     e(  5 -  5) =     -7.65490  eV     1   --> G_3            
     e(  6 -  6) =     -7.65477  eV     1   --> G_4            
     e(  7 -  8) =     -7.48975  eV     2   --> G_3            
     e(  7 -  8) =     -7.48975  eV     2   --> G_4            
     e(  9 -  9) =     -7.48479  eV     1   --> G_4            
     e( 10 - 10) =     -7.48463  eV     1   --> G_3            
     e( 11 - 11) =     -7.48419  eV     1   --> G_4            
     e( 12 - 12) =     -7.48405  eV     1   --> G_3            
     e( 13 - 13) =     -7.45182  eV     1   --> G_4            
     e( 14 - 14) =     -7.45171  eV     1   --> G_3            
     e( 15 - 15) =     -7.45135  eV     1   --> G_4            
     e( 16 - 16) =     -7.45124  eV     1   --> G_3            
     e( 17 - 18) =     -7.45080  eV     2   --> G_3            
     e( 17 - 18) =     -7.45080  eV     2   --> G_4            
     e( 19 - 20) =     -7.42043  eV     2   --> G_3            
     e( 19 - 20) =     -7.42043  eV     2   --> G_4            
     e( 21 - 22) =     -7.41996  eV     2   --> G_3            
     e( 21 - 22) =     -7.41996  eV     2   --> G_4            
     e( 23 - 24) =     -7.41968  eV     2   --> G_3            
     e( 23 - 24) =     -7.41968  eV     2   --> G_4            
     e( 25 - 25) =     -7.15823  eV     1   --> G_4            
     e( 26 - 26) =     -7.15710  eV     1   --> G_3            
     e( 27 - 27) =     -7.13860  eV     1   --> G_4            
     e( 28 - 28) =     -7.13766  eV     1   --> G_3            
     e( 29 - 29) =     -7.13566  eV     1   --> G_4            
     e( 30 - 30) =     -7.13478  eV     1   --> G_3            
     e( 31 - 31) =     -7.05681  eV     1   --> G_3            
     e( 32 - 32) =     -7.05653  eV     1   --> G_4            
     e( 33 - 34) =     -7.04960  eV     2   --> G_3            
     e( 33 - 34) =     -7.04960  eV     2   --> G_4            
     e( 35 - 36) =     -7.04884  eV     2   --> G_3            
     e( 35 - 36) =     -7.04884  eV     2   --> G_4            
     e( 37 - 37) =     -7.01471  eV     1   --> G_3            
     e( 38 - 38) =     -7.01434  eV     1   --> G_4            
     e( 39 - 40) =     -7.01211  eV     2   --> G_3            
     e( 39 - 40) =     -7.01211  eV     2   --> G_4            
     e( 41 - 42) =     -7.00404  eV     2   --> G_3            
     e( 41 - 42) =     -7.00404  eV     2   --> G_4            
     e( 43 - 43) =     -7.00067  eV     1   --> G_3            
     e( 44 - 44) =     -7.00006  eV     1   --> G_3            
     e( 45 - 46) =     -6.99936  eV     2   --> G_3            
     e( 45 - 46) =     -6.99936  eV     2   --> G_4            
     e( 47 - 47) =     -6.99891  eV     1   --> G_4            
     e( 48 - 48) =     -6.99819  eV     1   --> G_4            
     e( 49 - 49) =     -6.93708  eV     1   --> G_4            
     e( 50 - 50) =     -6.93614  eV     1   --> G_3            
     e( 51 - 51) =     -6.93532  eV     1   --> G_4            
     e( 52 - 52) =     -6.93450  eV     1   --> G_3            
     e( 53 - 53) =     -6.90799  eV     1   --> G_4            
     e( 54 - 54) =     -6.90748  eV     1   --> G_3            
     e( 55 - 55) =     -6.86663  eV     1   --> G_3            
     e( 56 - 56) =     -6.86639  eV     1   --> G_4            
     e( 57 - 57) =     -6.86599  eV     1   --> G_3            
     e( 58 - 58) =     -6.86579  eV     1   --> G_4            
     e( 59 - 59) =     -6.79927  eV     1   --> G_3            
     e( 60 - 60) =     -6.79916  eV     1   --> G_4            
     e( 61 - 62) =     -6.77862  eV     2   --> G_3            
     e( 61 - 62) =     -6.77862  eV     2   --> G_4            
     e( 63 - 64) =     -6.77825  eV     2   --> G_3            
     e( 63 - 64) =     -6.77825  eV     2   --> G_4            
     e( 65 - 66) =     -6.77298  eV     2   --> G_3            
     e( 65 - 66) =     -6.77298  eV     2   --> G_4            
     e( 67 - 67) =     -6.32417  eV     1   --> G_4            
     e( 68 - 68) =     -6.32403  eV     1   --> G_3            
     e( 69 - 70) =     -6.19712  eV     2   --> G_3            
     e( 69 - 70) =     -6.19712  eV     2   --> G_4            
     e( 71 - 72) =     -6.19683  eV     2   --> G_3            
     e( 71 - 72) =     -6.19683  eV     2   --> G_4            
     e( 73 - 74) =      0.33875  eV     2   --> G_3            
     e( 73 - 74) =      0.33875  eV     2   --> G_4            
     e( 75 - 76) =      0.34002  eV     2   --> G_3            
     e( 75 - 76) =      0.34002  eV     2   --> G_4            
     e( 77 - 78) =      0.72595  eV     2   --> G_3            
     e( 77 - 78) =      0.72595  eV     2   --> G_4            
     e( 79 - 80) =      3.14532  eV     2   --> G_3            
     e( 79 - 80) =      3.14532  eV     2   --> G_4            
     e( 81 - 82) =      4.06229  eV     2   --> G_3            
     e( 81 - 82) =      4.06229  eV     2   --> G_4            
     e( 83 - 84) =      4.06404  eV     2   --> G_3            
     e( 83 - 84) =      4.06404  eV     2   --> G_4            
     e( 85 - 85) =      5.54066  eV     1   --> G_3            
     e( 86 - 86) =      5.54087  eV     1   --> G_4            
     e( 87 - 87) =      5.57359  eV     1   --> G_4            
     e( 88 - 88) =      5.57379  eV     1   --> G_3            
     e( 89 - 89) =      5.58994  eV     1   --> G_4            
     e( 90 - 90) =      5.59030  eV     1   --> G_3            
     e( 91 - 92) =      5.64729  eV     2   --> G_3            
     e( 91 - 92) =      5.64729  eV     2   --> G_4            
     e( 93 - 93) =      5.68699  eV     1   --> G_3            
     e( 94 - 94) =      5.68739  eV     1   --> G_4            
     e( 95 - 95) =      5.70906  eV     1   --> G_3            
     e( 96 - 96) =      5.70934  eV     1   --> G_4            
     e( 97 - 97) =      5.72464  eV     1   --> G_4            
     e( 98 - 98) =      5.72517  eV     1   --> G_3            
     e( 99 - 99) =      5.74102  eV     1   --> G_3            
     e(100 -100) =      5.74162  eV     1   --> G_4            
     e(101 -101) =      5.78707  eV     1   --> G_3            
     e(102 -102) =      5.78749  eV     1   --> G_4            
     e(103 -103) =      5.84504  eV     1   --> G_4            
     e(104 -104) =      5.84586  eV     1   --> G_3            
     e(105 -105) =      5.86744  eV     1   --> G_3            
     e(106 -106) =      5.86812  eV     1   --> G_4            
     e(107 -107) =      5.91673  eV     1   --> G_4            
     e(108 -108) =      5.91691  eV     1   --> G_3            
     e(109 -110) =      6.74212  eV     2   --> G_3            
     e(109 -110) =      6.74212  eV     2   --> G_4            
     e(111 -111) =      6.74420  eV     1   --> G_4            
     e(112 -112) =      6.74437  eV     1   --> G_3            
     e(113 -113) =      7.78264  eV     1   --> G_4            
     e(114 -114) =      7.78340  eV     1   --> G_3            
     e(115 -115) =      9.43738  eV     1   --> G_3            
     e(116 -116) =      9.43789  eV     1   --> G_4            
     e(117 -117) =      9.81253  eV     1   --> G_4            
     e(118 -118) =      9.81274  eV     1   --> G_3            
     e(119 -119) =      9.81343  eV     1   --> G_4            
     e(120 -120) =      9.81363  eV     1   --> G_3            

 **************************************************************************

 **************************************************************************

                    xk=(   0.00000,   0.06415,   0.08105  )

     Band symmetry, C_s (m)     double point group:

     e(  1 -  1) =     -7.66041  eV     1   --> G_3            
     e(  2 -  2) =     -7.66000  eV     1   --> G_4            
     e(  3 -  3) =     -7.65957  eV     1   --> G_3            
     e(  4 -  4) =     -7.65927  eV     1   --> G_4            
     e(  5 -  5) =     -7.65561  eV     1   --> G_3            
     e(  6 -  6) =     -7.65542  eV     1   --> G_4            
     e(  7 -  8) =     -7.49227  eV     2   --> G_3            
     e(  7 -  8) =     -7.49227  eV     2   --> G_4            
     e(  9 -  9) =     -7.48784  eV     1   --> G_4            
     e( 10 - 10) =     -7.48763  eV     1   --> G_3            
     e( 11 - 11) =     -7.48724  eV     1   --> G_4            
     e( 12 - 12) =     -7.48705  eV     1   --> G_3            
     e( 13 - 13) =     -7.45518  eV     1   --> G_4            
     e( 14 - 14) =     -7.45484  eV     1   --> G_3            
     e( 15 - 15) =     -7.45467  eV     1   --> G_4            
     e( 16 - 16) =     -7.45439  eV     1   --> G_3            
     e( 17 - 17) =     -7.45374  eV     1   --> G_4            
     e( 18 - 18) =     -7.45350  eV     1   --> G_3            
     e( 19 - 19) =     -7.42198  eV     1   --> G_3            
     e( 20 - 20) =     -7.42172  eV     1   --> G_4            
     e( 21 - 21) =     -7.42146  eV     1   --> G_3            
     e( 22 - 22) =     -7.42124  eV     1   --> G_4            
     e( 23 - 23) =     -7.42107  eV     1   --> G_3            
     e( 24 - 24) =     -7.42090  eV     1   --> G_4            
     e( 25 - 25) =     -7.16857  eV     1   --> G_4            
     e( 26 - 26) =     -7.16719  eV     1   --> G_3            
     e( 27 - 27) =     -7.15209  eV     1   --> G_4            
     e( 28 - 28) =     -7.15106  eV     1   --> G_3            
     e( 29 - 29) =     -7.14818  eV     1   --> G_4            
     e( 30 - 30) =     -7.14709  eV     1   --> G_3            
     e( 31 - 31) =     -7.06024  eV     1   --> G_3            
     e( 32 - 32) =     -7.05988  eV     1   --> G_4            
     e( 33 - 34) =     -7.05191  eV     2   --> G_3            
     e( 33 - 34) =     -7.05191  eV     2   --> G_4            
     e( 35 - 36) =     -7.05104  eV     2   --> G_3            
     e( 35 - 36) =     -7.05104  eV     2   --> G_4            
     e( 37 - 37) =     -7.01159  eV     1   --> G_3            
     e( 38 - 38) =     -7.01098  eV     1   --> G_4            
     e( 39 - 39) =     -7.01016  eV     1   --> G_3            
     e( 40 - 40) =     -7.00975  eV     1   --> G_4            
     e( 41 - 41) =     -7.00718  eV     1   --> G_3            
     e( 42 - 42) =     -7.00649  eV     1   --> G_4            
     e( 43 - 43) =     -6.98534  eV     1   --> G_3            
     e( 44 - 45) =     -6.98439  eV     2   --> G_3            
     e( 44 - 45) =     -6.98439  eV     2   --> G_4            
     e( 46 - 46) =     -6.98381  eV     1   --> G_3            
     e( 47 - 47) =     -6.98335  eV     1   --> G_4            
     e( 48 - 48) =     -6.98304  eV     1   --> G_4            
     e( 49 - 49) =     -6.92138  eV     1   --> G_4            
     e( 50 - 50) =     -6.92037  eV     1   --> G_3            
     e( 51 - 51) =     -6.91872  eV     1   --> G_4            
     e( 52 - 52) =     -6.91786  eV     1   --> G_3            
     e( 53 - 53) =     -6.90294  eV     1   --> G_4            
     e( 54 - 54) =     -6.90240  eV     1   --> G_3            
     e( 55 - 55) =     -6.85730  eV     1   --> G_3            
     e( 56 - 56) =     -6.85700  eV     1   --> G_4            
     e( 57 - 57) =     -6.85597  eV     1   --> G_3            
     e( 58 - 58) =     -6.85570  eV     1   --> G_4            
     e( 59 - 60) =     -6.79101  eV     2   --> G_3            
     e( 59 - 60) =     -6.79101  eV     2   --> G_4            
     e( 61 - 62) =     -6.77670  eV     2   --> G_3            
     e( 61 - 62) =     -6.77670  eV     2   --> G_4            
     e( 63 - 64) =     -6.77614  eV     2   --> G_3            
     e( 63 - 64) =     -6.77614  eV     2   --> G_4            
     e( 65 - 65) =     -6.75536  eV     1   --> G_3            
     e( 66 - 66) =     -6.75517  eV     1   --> G_4            
     e( 67 - 67) =     -6.30899  eV     1   --> G_4            
     e( 68 - 68) =     -6.30878  eV     1   --> G_3            
     e( 69 - 70) =     -6.18070  eV     2   --> G_3            
     e( 69 - 70) =     -6.18070  eV     2   --> G_4            
     e( 71 - 72) =     -6.18028  eV     2   --> G_3            
     e( 71 - 72) =     -6.18028  eV     2   --> G_4            
     e( 73 - 74) =      0.35362  eV     2   --> G_3            
     e( 73 - 74) =      0.35362  eV     2   --> G_4            
     e( 75 - 76) =      0.35489  eV     2   --> G_3            
     e( 75 - 76) =      0.35489  eV     2   --> G_4            
     e( 77 - 78) =      0.73562  eV     2   --> G_3            
     e( 77 - 78) =      0.73562  eV     2   --> G_4            
     e( 79 - 80) =      3.15853  eV     2   --> G_3            
     e( 79 - 80) =      3.15853  eV     2   --> G_4            
     e( 81 - 82) =      4.04922  eV     2   --> G_3            
     e( 81 - 82) =      4.04922  eV     2   --> G_4            
     e( 83 - 84) =      4.05126  eV     2   --> G_3            
     e( 83 - 84) =      4.05126  eV     2   --> G_4            
     e( 85 - 85) =      5.42260  eV     1   --> G_3            
     e( 86 - 86) =      5.42288  eV     1   --> G_4            
     e( 87 - 87) =      5.43169  eV     1   --> G_4            
     e( 88 - 88) =      5.43187  eV     1   --> G_3            
     e( 89 - 89) =      5.45066  eV     1   --> G_4            
     e( 90 - 90) =      5.45093  eV     1   --> G_3            
     e( 91 - 91) =      5.59738  eV     1   --> G_3            
     e( 92 - 92) =      5.59985  eV     1   --> G_4            
     e( 93 - 93) =      5.60692  eV     1   --> G_4            
     e( 94 - 94) =      5.60762  eV     1   --> G_3            
     e( 95 - 95) =      5.62079  eV     1   --> G_4            
     e( 96 - 96) =      5.62191  eV     1   --> G_3            
     e( 97 - 97) =      5.64291  eV     1   --> G_3            
     e( 98 - 98) =      5.64407  eV     1   --> G_4            
     e( 99 - 99) =      5.64761  eV     1   --> G_4            
     e(100 -100) =      5.65015  eV     1   --> G_3            
     e(101 -101) =      5.68099  eV     1   --> G_3            
     e(102 -102) =      5.68264  eV     1   --> G_4            
     e(103 -103) =      5.80504  eV     1   --> G_4            
     e(104 -104) =      5.80568  eV     1   --> G_3            
     e(105 -105) =      5.84267  eV     1   --> G_3            
     e(106 -106) =      5.84327  eV     1   --> G_4            
     e(107 -107) =      5.88536  eV     1   --> G_4            
     e(108 -108) =      5.88561  eV     1   --> G_3            
     e(109 -109) =      6.79032  eV     1   --> G_3            
     e(110 -110) =      6.79063  eV     1   --> G_4            
     e(111 -111) =      6.79374  eV     1   --> G_4            
     e(112 -112) =      6.79422  eV     1   --> G_3            
     e(113 -113) =      7.77206  eV     1   --> G_4            
     e(114 -114) =      7.77306  eV     1   --> G_3            
     e(115 -115) =      9.57142  eV     1   --> G_3            
     e(116 -116) =      9.57209  eV     1   --> G_4            
     e(117 -117) =      9.91702  eV     1   --> G_4            
     e(118 -118) =      9.91736  eV     1   --> G_3            
     e(119 -119) =      9.91965  eV     1   --> G_4            
     e(120 -120) =      9.91991  eV     1   --> G_3            

 **************************************************************************

 **************************************************************************

                    xk=(   0.00000,   0.08553,   0.08105  )

     Band symmetry, C_s (m)     double point group:

     e(  1 -  1) =     -7.66131  eV     1   --> G_3            
     e(  2 -  2) =     -7.66077  eV     1   --> G_4            
     e(  3 -  3) =     -7.66045  eV     1   --> G_3            
     e(  4 -  4) =     -7.66006  eV     1   --> G_4            
     e(  5 -  5) =     -7.65659  eV     1   --> G_3            
     e(  6 -  6) =     -7.65634  eV     1   --> G_4            
     e(  7 -  8) =     -7.49550  eV     2   --> G_3            
     e(  7 -  8) =     -7.49550  eV     2   --> G_4            
     e(  9 -  9) =     -7.49185  eV     1   --> G_4            
     e( 10 - 10) =     -7.49163  eV     1   --> G_3            
     e( 11 - 11) =     -7.49125  eV     1   --> G_4            
     e( 12 - 12) =     -7.49105  eV     1   --> G_3            
     e( 13 - 13) =     -7.45987  eV     1   --> G_4            
     e( 14 - 15) =     -7.45932  eV     2   --> G_3            
     e( 14 - 15) =     -7.45932  eV     2   --> G_4            
     e( 16 - 16) =     -7.45881  eV     1   --> G_3            
     e( 17 - 17) =     -7.45803  eV     1   --> G_4            
     e( 18 - 18) =     -7.45753  eV     1   --> G_3            
     e( 19 - 19) =     -7.42401  eV     1   --> G_3            
     e( 20 - 21) =     -7.42351  eV     2   --> G_3            
     e( 20 - 21) =     -7.42351  eV     2   --> G_4            
     e( 22 - 22) =     -7.42305  eV     1   --> G_4            
     e( 23 - 23) =     -7.42290  eV     1   --> G_3            
     e( 24 - 24) =     -7.42257  eV     1   --> G_4            
     e( 25 - 25) =     -7.17847  eV     1   --> G_4            
     e( 26 - 26) =     -7.17699  eV     1   --> G_3            
     e( 27 - 27) =     -7.16369  eV     1   --> G_4            
     e( 28 - 28) =     -7.16261  eV     1   --> G_3            
     e( 29 - 29) =     -7.15930  eV     1   --> G_4            
     e( 30 - 30) =     -7.15809  eV     1   --> G_3            
     e( 31 - 31) =     -7.06350  eV     1   --> G_3            
     e( 32 - 32) =     -7.06307  eV     1   --> G_4            
     e( 33 - 34) =     -7.05476  eV     2   --> G_3            
     e( 33 - 34) =     -7.05476  eV     2   --> G_4            
     e( 35 - 35) =     -7.05358  eV     1   --> G_3            
     e( 36 - 36) =     -7.05342  eV     1   --> G_4            
     e( 37 - 37) =     -7.01466  eV     1   --> G_3            
     e( 38 - 38) =     -7.01395  eV     1   --> G_4            
     e( 39 - 39) =     -7.01326  eV     1   --> G_3            
     e( 40 - 40) =     -7.01275  eV     1   --> G_4            
     e( 41 - 41) =     -7.01089  eV     1   --> G_3            
     e( 42 - 42) =     -7.01010  eV     1   --> G_4            
     e( 43 - 43) =     -6.96647  eV     1   --> G_3            
     e( 44 - 44) =     -6.96572  eV     1   --> G_4            
     e( 45 - 45) =     -6.96468  eV     1   --> G_3            
     e( 46 - 46) =     -6.96400  eV     1   --> G_4            
     e( 47 - 47) =     -6.96187  eV     1   --> G_3            
     e( 48 - 48) =     -6.96102  eV     1   --> G_4            
     e( 49 - 49) =     -6.90766  eV     1   --> G_4            
     e( 50 - 50) =     -6.90681  eV     1   --> G_3            
     e( 51 - 51) =     -6.90523  eV     1   --> G_4            
     e( 52 - 52) =     -6.90455  eV     1   --> G_3            
     e( 53 - 53) =     -6.89867  eV     1   --> G_4            
     e( 54 - 54) =     -6.89819  eV     1   --> G_3            
     e( 55 - 55) =     -6.83820  eV     1   --> G_3            
     e( 56 - 56) =     -6.83799  eV     1   --> G_4            
     e( 57 - 57) =     -6.83566  eV     1   --> G_3            
     e( 58 - 58) =     -6.83547  eV     1   --> G_4            
     e( 59 - 60) =     -6.78736  eV     2   --> G_3            
     e( 59 - 60) =     -6.78736  eV     2   --> G_4            
     e( 61 - 62) =     -6.77243  eV     2   --> G_3            
     e( 61 - 62) =     -6.77243  eV     2   --> G_4            
     e( 63 - 64) =     -6.77120  eV     2   --> G_3            
     e( 63 - 64) =     -6.77120  eV     2   --> G_4            
     e( 65 - 65) =     -6.72238  eV     1   --> G_3            
     e( 66 - 66) =     -6.72208  eV     1   --> G_4            
     e( 67 - 67) =     -6.28745  eV     1   --> G_4            
     e( 68 - 68) =     -6.28718  eV     1   --> G_3            
     e( 69 - 70) =     -6.15760  eV     2   --> G_3            
     e( 69 - 70) =     -6.15760  eV     2   --> G_4            
     e( 71 - 72) =     -6.15698  eV     2   --> G_3            
     e( 71 - 72) =     -6.15698  eV     2   --> G_4            
     e( 73 - 74) =      0.37390  eV     2   --> G_3            
     e( 73 - 74) =      0.37390  eV     2   --> G_4            
     e( 75 - 76) =      0.37524  eV     2   --> G_3            
     e( 75 - 76) =      0.37524  eV     2   --> G_4            
     e( 77 - 78) =      0.74840  eV     2   --> G_3            
     e( 77 - 78) =      0.74840  eV     2   --> G_4            
     e( 79 - 80) =      3.17645  eV     2   --> G_3            
     e( 79 - 80) =      3.17645  eV     2   --> G_4            
     e( 81 - 81) =      4.02585  eV     1   --> G_3            
     e( 82 - 82) =      4.02600  eV     1   --> G_4            
     e( 83 - 83) =      4.02919  eV     1   --> G_4            
     e( 84 - 84) =      4.02929  eV     1   --> G_3            
     e( 85 - 85) =      5.24599  eV     1   --> G_4            
     e( 86 - 86) =      5.24614  eV     1   --> G_3            
     e( 87 - 88) =      5.25888  eV     2   --> G_3            
     e( 87 - 88) =      5.25888  eV     2   --> G_4            
     e( 89 - 89) =      5.26429  eV     1   --> G_3            
     e( 90 - 90) =      5.26466  eV     1   --> G_4            
     e( 91 - 92) =      5.45401  eV     2   --> G_3            
     e( 91 - 92) =      5.45401  eV     2   --> G_4            
     e( 93 - 93) =      5.46634  eV     1   --> G_3            
     e( 94 - 94) =      5.46788  eV     1   --> G_4            
     e( 95 - 95) =      5.48119  eV     1   --> G_4            
     e( 96 - 96) =      5.48220  eV     1   --> G_3            
     e( 97 - 97) =      5.56132  eV     1   --> G_3            
     e( 98 - 98) =      5.56179  eV     1   --> G_4            
     e( 99 - 99) =      5.59402  eV     1   --> G_4            
     e(100 -100) =      5.59580  eV     1   --> G_3            
     e(101 -101) =      5.64095  eV     1   --> G_3            
     e(102 -102) =      5.64221  eV     1   --> G_4            
     e(103 -103) =      5.75981  eV     1   --> G_4            
     e(104 -104) =      5.76035  eV     1   --> G_3            
     e(105 -105) =      5.81033  eV     1   --> G_3            
     e(106 -106) =      5.81091  eV     1   --> G_4            
     e(107 -107) =      5.84788  eV     1   --> G_4            
     e(108 -108) =      5.84817  eV     1   --> G_3            
     e(109 -109) =      6.83483  eV     1   --> G_3            
     e(110 -110) =      6.83547  eV     1   --> G_4            
     e(111 -111) =      6.84169  eV     1   --> G_4            
     e(112 -112) =      6.84248  eV     1   --> G_3            
     e(113 -113) =      7.75400  eV     1   --> G_4            
     e(114 -114) =      7.75514  eV     1   --> G_3            
     e(115 -115) =      9.73680  eV     1   --> G_3            
     e(116 -116) =      9.73756  eV     1   --> G_4            
     e(117 -117) =     10.04600  eV     1   --> G_4            
     e(118 -118) =     10.04655  eV     1   --> G_3            
     e(119 -119) =     10.05193  eV     1   --> G_4            
     e(120 -120) =     10.05216  eV     1   --> G_3            

 **************************************************************************

 **************************************************************************

                    xk=(   0.00000,   0.10692,   0.08105  )

     Band symmetry, C_s (m)     double point group:

     e(  1 -  1) =     -7.66245  eV     1   --> G_3            
     e(  2 -  2) =     -7.66179  eV     1   --> G_4            
     e(  3 -  3) =     -7.66156  eV     1   --> G_3            
     e(  4 -  4) =     -7.66108  eV     1   --> G_4            
     e(  5 -  5) =     -7.65782  eV     1   --> G_3            
     e(  6 -  6) =     -7.65750  eV     1   --> G_4            
     e(  7 -  7) =     -7.49924  eV     1   --> G_3            
     e(  8 -  8) =     -7.49910  eV     1   --> G_4            
     e(  9 -  9) =     -7.49666  eV     1   --> G_4            
     e( 10 - 10) =     -7.49645  eV     1   --> G_3            
     e( 11 - 11) =     -7.49608  eV     1   --> G_4            
     e( 12 - 12) =     -7.49586  eV     1   --> G_3            
     e( 13 - 13) =     -7.46584  eV     1   --> G_4            
     e( 14 - 14) =     -7.46526  eV     1   --> G_4            
     e( 15 - 15) =     -7.46486  eV     1   --> G_3            
     e( 16 - 16) =     -7.46449  eV     1   --> G_3            
     e( 17 - 17) =     -7.46391  eV     1   --> G_4            
     e( 18 - 18) =     -7.46310  eV     1   --> G_3            
     e( 19 - 19) =     -7.42622  eV     1   --> G_3            
     e( 20 - 20) =     -7.42569  eV     1   --> G_3            
     e( 21 - 21) =     -7.42547  eV     1   --> G_4            
     e( 22 - 22) =     -7.42507  eV     1   --> G_4            
     e( 23 - 23) =     -7.42494  eV     1   --> G_3            
     e( 24 - 24) =     -7.42444  eV     1   --> G_4            
     e( 25 - 25) =     -7.18676  eV     1   --> G_4            
     e( 26 - 26) =     -7.18527  eV     1   --> G_3            
     e( 27 - 27) =     -7.17285  eV     1   --> G_4            
     e( 28 - 28) =     -7.17175  eV     1   --> G_3            
     e( 29 - 29) =     -7.16833  eV     1   --> G_4            
     e( 30 - 30) =     -7.16703  eV     1   --> G_3            
     e( 31 - 31) =     -7.06658  eV     1   --> G_3            
     e( 32 - 32) =     -7.06609  eV     1   --> G_4            
     e( 33 - 34) =     -7.05786  eV     2   --> G_3            
     e( 33 - 34) =     -7.05786  eV     2   --> G_4            
     e( 35 - 35) =     -7.05629  eV     1   --> G_3            
     e( 36 - 36) =     -7.05606  eV     1   --> G_4            
     e( 37 - 37) =     -7.01717  eV     1   --> G_3            
     e( 38 - 38) =     -7.01646  eV     1   --> G_4            
     e( 39 - 39) =     -7.01573  eV     1   --> G_3            
     e( 40 - 40) =     -7.01523  eV     1   --> G_4            
     e( 41 - 41) =     -7.01386  eV     1   --> G_3            
     e( 42 - 42) =     -7.01308  eV     1   --> G_4            
     e( 43 - 43) =     -6.94856  eV     1   --> G_3            
     e( 44 - 44) =     -6.94798  eV     1   --> G_4            
     e( 45 - 45) =     -6.94565  eV     1   --> G_3            
     e( 46 - 46) =     -6.94512  eV     1   --> G_4            
     e( 47 - 47) =     -6.94166  eV     1   --> G_3            
     e( 48 - 48) =     -6.94098  eV     1   --> G_4            
     e( 49 - 49) =     -6.89921  eV     1   --> G_4            
     e( 50 - 50) =     -6.89863  eV     1   --> G_3            
     e( 51 - 51) =     -6.89750  eV     1   --> G_4            
     e( 52 - 52) =     -6.89705  eV     1   --> G_3            
     e( 53 - 53) =     -6.89542  eV     1   --> G_4            
     e( 54 - 54) =     -6.89504  eV     1   --> G_3            
     e( 55 - 56) =     -6.81174  eV     2   --> G_3            
     e( 55 - 56) =     -6.81174  eV     2   --> G_4            
     e( 57 - 58) =     -6.80958  eV     2   --> G_3            
     e( 57 - 58) =     -6.80958  eV     2   --> G_4            
     e( 59 - 60) =     -6.78531  eV     2   --> G_3            
     e( 59 - 60) =     -6.78531  eV     2   --> G_4            
     e( 61 - 61) =     -6.76023  eV     1   --> G_3            
     e( 62 - 62) =     -6.76013  eV     1   --> G_4            
     e( 63 - 63) =     -6.75698  eV     1   --> G_3            
     e( 64 - 64) =     -6.75679  eV     1   --> G_4            
     e( 65 - 65) =     -6.67787  eV     1   --> G_3            
     e( 66 - 66) =     -6.67750  eV     1   --> G_4            
     e( 67 - 67) =     -6.25934  eV     1   --> G_4            
     e( 68 - 68) =     -6.25902  eV     1   --> G_3            
     e( 69 - 69) =     -6.12774  eV     1   --> G_4            
     e( 70 - 70) =     -6.12764  eV     1   --> G_3            
     e( 71 - 72) =     -6.12688  eV     2   --> G_3            
     e( 71 - 72) =     -6.12688  eV     2   --> G_4            
     e( 73 - 74) =      0.39901  eV     2   --> G_3            
     e( 73 - 74) =      0.39901  eV     2   --> G_4            
     e( 75 - 76) =      0.40060  eV     2   --> G_3            
     e( 75 - 76) =      0.40060  eV     2   --> G_4            
     e( 77 - 78) =      0.76348  eV     2   --> G_3            
     e( 77 - 78) =      0.76348  eV     2   --> G_4            
     e( 79 - 80) =      3.19832  eV     2   --> G_3            
     e( 79 - 80) =      3.19832  eV     2   --> G_4            
     e( 81 - 81) =      3.98665  eV     1   --> G_3            
     e( 82 - 82) =      3.98692  eV     1   --> G_4            
     e( 83 - 83) =      3.99279  eV     1   --> G_4            
     e( 84 - 84) =      3.99298  eV     1   --> G_3            
     e( 85 - 86) =      5.03072  eV     2   --> G_3            
     e( 85 - 86) =      5.03072  eV     2   --> G_4            
     e( 87 - 88) =      5.03588  eV     2   --> G_3            
     e( 87 - 88) =      5.03588  eV     2   --> G_4            
     e( 89 - 89) =      5.07740  eV     1   --> G_3            
     e( 90 - 90) =      5.07788  eV     1   --> G_4            
     e( 91 - 91) =      5.23646  eV     1   --> G_3            
     e( 92 - 92) =      5.23665  eV     1   --> G_4            
     e( 93 - 93) =      5.32734  eV     1   --> G_3            
     e( 94 - 94) =      5.32857  eV     1   --> G_4            
     e( 95 - 95) =      5.33284  eV     1   --> G_4            
     e( 96 - 96) =      5.33396  eV     1   --> G_3            
     e( 97 - 97) =      5.50556  eV     1   --> G_3            
     e( 98 - 98) =      5.50589  eV     1   --> G_4            
     e( 99 - 99) =      5.53398  eV     1   --> G_4            
     e(100 -100) =      5.53553  eV     1   --> G_3            
     e(101 -101) =      5.59186  eV     1   --> G_3            
     e(102 -102) =      5.59297  eV     1   --> G_4            
     e(103 -103) =      5.70765  eV     1   --> G_4            
     e(104 -104) =      5.70812  eV     1   --> G_3            
     e(105 -105) =      5.76973  eV     1   --> G_3            
     e(106 -106) =      5.77031  eV     1   --> G_4            
     e(107 -107) =      5.80292  eV     1   --> G_4            
     e(108 -108) =      5.80324  eV     1   --> G_3            
     e(109 -109) =      6.87071  eV     1   --> G_3            
     e(110 -110) =      6.87167  eV     1   --> G_4            
     e(111 -111) =      6.88302  eV     1   --> G_4            
     e(112 -112) =      6.88412  eV     1   --> G_3            
     e(113 -113) =      7.72664  eV     1   --> G_4            
     e(114 -114) =      7.72786  eV     1   --> G_3            
     e(115 -115) =      9.91844  eV     1   --> G_3            
     e(116 -116) =      9.91925  eV     1   --> G_4            
     e(117 -117) =     10.18563  eV     1   --> G_4            
     e(118 -118) =     10.18658  eV     1   --> G_3            
     e(119 -120) =     10.19677  eV     2   --> G_3            
     e(119 -120) =     10.19677  eV     2   --> G_4            

 **************************************************************************

 **************************************************************************

                    xk=(   0.00000,   0.12830,   0.08105  )

     Band symmetry, C_s (m)     double point group:

     e(  1 -  1) =     -7.66382  eV     1   --> G_3            
     e(  2 -  2) =     -7.66304  eV     1   --> G_4            
     e(  3 -  3) =     -7.66290  eV     1   --> G_3            
     e(  4 -  4) =     -7.66233  eV     1   --> G_4            
     e(  5 -  5) =     -7.65927  eV     1   --> G_3            
     e(  6 -  6) =     -7.65890  eV     1   --> G_4            
     e(  7 -  7) =     -7.50332  eV     1   --> G_3            
     e(  8 -  8) =     -7.50314  eV     1   --> G_4            
     e(  9 -  9) =     -7.50218  eV     1   --> G_4            
     e( 10 - 10) =     -7.50196  eV     1   --> G_3            
     e( 11 - 11) =     -7.50153  eV     1   --> G_4            
     e( 12 - 12) =     -7.50132  eV     1   --> G_3            
     e( 13 - 13) =     -7.47292  eV     1   --> G_4            
     e( 14 - 14) =     -7.47235  eV     1   --> G_4            
     e( 15 - 15) =     -7.47165  eV     1   --> G_3            
     e( 16 - 16) =     -7.47141  eV     1   --> G_4            
     e( 17 - 17) =     -7.47131  eV     1   --> G_3            
     e( 18 - 18) =     -7.47037  eV     1   --> G_3            
     e( 19 - 19) =     -7.42835  eV     1   --> G_3            
     e( 20 - 20) =     -7.42782  eV     1   --> G_3            
     e( 21 - 21) =     -7.42739  eV     1   --> G_4            
     e( 22 - 23) =     -7.42702  eV     2   --> G_3            
     e( 22 - 23) =     -7.42702  eV     2   --> G_4            
     e( 24 - 24) =     -7.42629  eV     1   --> G_4            
     e( 25 - 25) =     -7.19308  eV     1   --> G_4            
     e( 26 - 26) =     -7.19163  eV     1   --> G_3            
     e( 27 - 27) =     -7.17970  eV     1   --> G_4            
     e( 28 - 28) =     -7.17861  eV     1   --> G_3            
     e( 29 - 29) =     -7.17525  eV     1   --> G_4            
     e( 30 - 30) =     -7.17389  eV     1   --> G_3            
     e( 31 - 31) =     -7.06931  eV     1   --> G_3            
     e( 32 - 32) =     -7.06877  eV     1   --> G_4            
     e( 33 - 34) =     -7.06086  eV     2   --> G_3            
     e( 33 - 34) =     -7.06086  eV     2   --> G_4            
     e( 35 - 35) =     -7.05896  eV     1   --> G_3            
     e( 36 - 36) =     -7.05867  eV     1   --> G_4            
     e( 37 - 37) =     -7.01885  eV     1   --> G_3            
     e( 38 - 38) =     -7.01820  eV     1   --> G_4            
     e( 39 - 39) =     -7.01744  eV     1   --> G_3            
     e( 40 - 40) =     -7.01697  eV     1   --> G_4            
     e( 41 - 41) =     -7.01602  eV     1   --> G_3            
     e( 42 - 42) =     -7.01529  eV     1   --> G_4            
     e( 43 - 43) =     -6.93143  eV     1   --> G_3            
     e( 44 - 44) =     -6.93101  eV     1   --> G_4            
     e( 45 - 45) =     -6.92844  eV     1   --> G_3            
     e( 46 - 46) =     -6.92803  eV     1   --> G_4            
     e( 47 - 47) =     -6.92398  eV     1   --> G_3            
     e( 48 - 48) =     -6.92346  eV     1   --> G_4            
     e( 49 - 49) =     -6.89455  eV     1   --> G_4            
     e( 50 - 50) =     -6.89418  eV     1   --> G_3            
     e( 51 - 51) =     -6.89336  eV     1   --> G_4            
     e( 52 - 52) =     -6.89309  eV     1   --> G_3            
     e( 53 - 53) =     -6.89291  eV     1   --> G_4            
     e( 54 - 54) =     -6.89265  eV     1   --> G_3            
     e( 55 - 56) =     -6.79398  eV     2   --> G_3            
     e( 55 - 56) =     -6.79398  eV     2   --> G_4            
     e( 57 - 58) =     -6.79338  eV     2   --> G_3            
     e( 57 - 58) =     -6.79338  eV     2   --> G_4            
     e( 59 - 60) =     -6.78348  eV     2   --> G_3            
     e( 59 - 60) =     -6.78348  eV     2   --> G_4            
     e( 61 - 62) =     -6.72665  eV     2   --> G_3            
     e( 61 - 62) =     -6.72665  eV     2   --> G_4            
     e( 63 - 63) =     -6.72097  eV     1   --> G_3            
     e( 64 - 64) =     -6.72069  eV     1   --> G_4            
     e( 65 - 65) =     -6.62419  eV     1   --> G_3            
     e( 66 - 66) =     -6.62377  eV     1   --> G_4            
     e( 67 - 67) =     -6.22446  eV     1   --> G_4            
     e( 68 - 68) =     -6.22409  eV     1   --> G_3            
     e( 69 - 69) =     -6.09106  eV     1   --> G_4            
     e( 70 - 70) =     -6.09090  eV     1   --> G_3            
     e( 71 - 71) =     -6.08993  eV     1   --> G_3            
     e( 72 - 72) =     -6.08983  eV     1   --> G_4            
     e( 73 - 73) =      0.42810  eV     1   --> G_3            
     e( 74 - 74) =      0.42821  eV     1   --> G_4            
     e( 75 - 76) =      0.43029  eV     2   --> G_3            
     e( 75 - 76) =      0.43029  eV     2   --> G_4            
     e( 77 - 78) =      0.77975  eV     2   --> G_3            
     e( 77 - 78) =      0.77975  eV     2   --> G_4            
     e( 79 - 79) =      3.22285  eV     1   --> G_4            
     e( 80 - 80) =      3.22297  eV     1   --> G_3            
     e( 81 - 81) =      3.92439  eV     1   --> G_3            
     e( 82 - 82) =      3.92481  eV     1   --> G_4            
     e( 83 - 83) =      3.93497  eV     1   --> G_4            
     e( 84 - 84) =      3.93529  eV     1   --> G_3            
     e( 85 - 86) =      4.79429  eV     2   --> G_3            
     e( 85 - 86) =      4.79429  eV     2   --> G_4            
     e( 87 - 88) =      4.79627  eV     2   --> G_3            
     e( 87 - 88) =      4.79627  eV     2   --> G_4            
     e( 89 - 89) =      4.87164  eV     1   --> G_3            
     e( 90 - 90) =      4.87229  eV     1   --> G_4            
     e( 91 - 91) =      5.00068  eV     1   --> G_3            
     e( 92 - 92) =      5.00082  eV     1   --> G_4            
     e( 93 - 93) =      5.19042  eV     1   --> G_4            
     e( 94 - 94) =      5.19166  eV     1   --> G_3            
     e( 95 - 95) =      5.19401  eV     1   --> G_3            
     e( 96 - 96) =      5.19511  eV     1   --> G_4            
     e( 97 - 97) =      5.44178  eV     1   --> G_3            
     e( 98 - 98) =      5.44208  eV     1   --> G_4            
     e( 99 - 99) =      5.46665  eV     1   --> G_4            
     e(100 -100) =      5.46812  eV     1   --> G_3            
     e(101 -101) =      5.53408  eV     1   --> G_3            
     e(102 -102) =      5.53509  eV     1   --> G_4            
     e(103 -103) =      5.64895  eV     1   --> G_4            
     e(104 -104) =      5.64934  eV     1   --> G_3            
     e(105 -105) =      5.72147  eV     1   --> G_3            
     e(106 -106) =      5.72204  eV     1   --> G_4            
     e(107 -107) =      5.75086  eV     1   --> G_4            
     e(108 -108) =      5.75120  eV     1   --> G_3            
     e(109 -109) =      6.89620  eV     1   --> G_3            
     e(110 -110) =      6.89748  eV     1   --> G_4            
     e(111 -111) =      6.91591  eV     1   --> G_4            
     e(112 -112) =      6.91730  eV     1   --> G_3            
     e(113 -113) =      7.68864  eV     1   --> G_4            
     e(114 -114) =      7.68991  eV     1   --> G_3            
     e(115 -115) =     10.10185  eV     1   --> G_3            
     e(116 -116) =     10.10265  eV     1   --> G_4            
     e(117 -117) =     10.31978  eV     1   --> G_4            
     e(118 -118) =     10.32158  eV     1   --> G_3            
     e(119 -119) =     10.33827  eV     1   --> G_3            
     e(120 -120) =     10.33893  eV     1   --> G_4            

 **************************************************************************

 **************************************************************************

                    xk=(   0.00000,   0.14968,   0.08105  )

     Band symmetry, C_s (m)     double point group:

     e(  1 -  1) =     -7.66543  eV     1   --> G_3            
     e(  2 -  3) =     -7.66454  eV     2   --> G_3            
     e(  2 -  3) =     -7.66454  eV     2   --> G_4            
     e(  4 -  4) =     -7.66380  eV     1   --> G_4            
     e(  5 -  5) =     -7.66095  eV     1   --> G_3            
     e(  6 -  6) =     -7.66051  eV     1   --> G_4            
     e(  7 -  7) =     -7.50866  eV     1   --> G_4            
     e(  8 -  8) =     -7.50839  eV     1   --> G_3            
     e(  9 - 10) =     -7.50776  eV     2   --> G_3            
     e(  9 - 10) =     -7.50776  eV     2   --> G_4            
     e( 11 - 12) =     -7.50708  eV     2   --> G_3            
     e( 11 - 12) =     -7.50708  eV     2   --> G_4            
     e( 13 - 13) =     -7.48104  eV     1   --> G_4            
     e( 14 - 14) =     -7.48047  eV     1   --> G_4            
     e( 15 - 15) =     -7.47974  eV     1   --> G_4            
     e( 16 - 16) =     -7.47943  eV     1   --> G_3            
     e( 17 - 17) =     -7.47907  eV     1   --> G_3            
     e( 18 - 18) =     -7.47884  eV     1   --> G_3            
     e( 19 - 19) =     -7.43020  eV     1   --> G_3            
     e( 20 - 20) =     -7.42964  eV     1   --> G_3            
     e( 21 - 21) =     -7.42911  eV     1   --> G_4            
     e( 22 - 23) =     -7.42871  eV     2   --> G_3            
     e( 22 - 23) =     -7.42871  eV     2   --> G_4            
     e( 24 - 24) =     -7.42798  eV     1   --> G_4            
     e( 25 - 25) =     -7.19748  eV     1   --> G_4            
     e( 26 - 26) =     -7.19611  eV     1   --> G_3            
     e( 27 - 27) =     -7.18459  eV     1   --> G_4            
     e( 28 - 28) =     -7.18355  eV     1   --> G_3            
     e( 29 - 29) =     -7.18036  eV     1   --> G_4            
     e( 30 - 30) =     -7.17896  eV     1   --> G_3            
     e( 31 - 31) =     -7.07153  eV     1   --> G_3            
     e( 32 - 32) =     -7.07095  eV     1   --> G_4            
     e( 33 - 33) =     -7.06348  eV     1   --> G_3            
     e( 34 - 34) =     -7.06337  eV     1   --> G_4            
     e( 35 - 35) =     -7.06138  eV     1   --> G_3            
     e( 36 - 36) =     -7.06104  eV     1   --> G_4            
     e( 37 - 37) =     -7.01989  eV     1   --> G_3            
     e( 38 - 38) =     -7.01929  eV     1   --> G_4            
     e( 39 - 39) =     -7.01854  eV     1   --> G_3            
     e( 40 - 40) =     -7.01810  eV     1   --> G_4            
     e( 41 - 41) =     -7.01747  eV     1   --> G_3            
     e( 42 - 42) =     -7.01680  eV     1   --> G_4            
     e( 43 - 43) =     -6.91565  eV     1   --> G_3            
     e( 44 - 44) =     -6.91539  eV     1   --> G_4            
     e( 45 - 45) =     -6.91312  eV     1   --> G_3            
     e( 46 - 46) =     -6.91285  eV     1   --> G_4            
     e( 47 - 47) =     -6.90872  eV     1   --> G_3            
     e( 48 - 48) =     -6.90838  eV     1   --> G_4            
     e( 49 - 49) =     -6.89148  eV     1   --> G_4            
     e( 50 - 50) =     -6.89133  eV     1   --> G_3            
     e( 51 - 51) =     -6.89092  eV     1   --> G_4            
     e( 52 - 52) =     -6.89077  eV     1   --> G_3            
     e( 53 - 54) =     -6.89048  eV     2   --> G_3            
     e( 53 - 54) =     -6.89048  eV     2   --> G_4            
     e( 55 - 56) =     -6.78652  eV     2   --> G_3            
     e( 55 - 56) =     -6.78652  eV     2   --> G_4            
     e( 57 - 58) =     -6.78615  eV     2   --> G_3            
     e( 57 - 58) =     -6.78615  eV     2   --> G_4            
     e( 59 - 60) =     -6.78142  eV     2   --> G_3            
     e( 59 - 60) =     -6.78142  eV     2   --> G_4            
     e( 61 - 62) =     -6.67286  eV     2   --> G_3            
     e( 61 - 62) =     -6.67286  eV     2   --> G_4            
     e( 63 - 63) =     -6.66653  eV     1   --> G_3            
     e( 64 - 64) =     -6.66622  eV     1   --> G_4            
     e( 65 - 65) =     -6.56264  eV     1   --> G_3            
     e( 66 - 66) =     -6.56219  eV     1   --> G_4            
     e( 67 - 67) =     -6.18267  eV     1   --> G_4            
     e( 68 - 68) =     -6.18227  eV     1   --> G_3            
     e( 69 - 69) =     -6.04758  eV     1   --> G_4            
     e( 70 - 70) =     -6.04734  eV     1   --> G_3            
     e( 71 - 71) =     -6.04617  eV     1   --> G_3            
     e( 72 - 72) =     -6.04598  eV     1   --> G_4            
     e( 73 - 73) =      0.46008  eV     1   --> G_3            
     e( 74 - 74) =      0.46024  eV     1   --> G_4            
     e( 75 - 75) =      0.46338  eV     1   --> G_4            
     e( 76 - 76) =      0.46350  eV     1   --> G_3            
     e( 77 - 78) =      0.79571  eV     2   --> G_3            
     e( 77 - 78) =      0.79571  eV     2   --> G_4            
     e( 79 - 79) =      3.24772  eV     1   --> G_4            
     e( 80 - 80) =      3.24789  eV     1   --> G_3            
     e( 81 - 81) =      3.83143  eV     1   --> G_3            
     e( 82 - 82) =      3.83203  eV     1   --> G_4            
     e( 83 - 83) =      3.84812  eV     1   --> G_4            
     e( 84 - 84) =      3.84860  eV     1   --> G_3            
     e( 85 - 86) =      4.54273  eV     2   --> G_3            
     e( 85 - 86) =      4.54273  eV     2   --> G_4            
     e( 87 - 88) =      4.54959  eV     2   --> G_3            
     e( 87 - 88) =      4.54959  eV     2   --> G_4            
     e( 89 - 89) =      4.65502  eV     1   --> G_3            
     e( 90 - 90) =      4.65590  eV     1   --> G_4            
     e( 91 - 92) =      4.75643  eV     2   --> G_3            
     e( 91 - 92) =      4.75643  eV     2   --> G_4            
     e( 93 - 93) =      5.06765  eV     1   --> G_4            
     e( 94 - 94) =      5.06904  eV     1   --> G_3            
     e( 95 - 95) =      5.07918  eV     1   --> G_3            
     e( 96 - 96) =      5.08028  eV     1   --> G_4            
     e( 97 - 97) =      5.37117  eV     1   --> G_3            
     e( 98 - 98) =      5.37147  eV     1   --> G_4            
     e( 99 - 99) =      5.39301  eV     1   --> G_4            
     e(100 -100) =      5.39447  eV     1   --> G_3            
     e(101 -101) =      5.46878  eV     1   --> G_3            
     e(102 -102) =      5.46974  eV     1   --> G_4            
     e(103 -103) =      5.58466  eV     1   --> G_4            
     e(104 -104) =      5.58498  eV     1   --> G_3            
     e(105 -105) =      5.66655  eV     1   --> G_3            
     e(106 -106) =      5.66711  eV     1   --> G_4            
     e(107 -107) =      5.69259  eV     1   --> G_4            
     e(108 -108) =      5.69295  eV     1   --> G_3            
     e(109 -109) =      6.91077  eV     1   --> G_3            
     e(110 -110) =      6.91237  eV     1   --> G_4            
     e(111 -111) =      6.93988  eV     1   --> G_4            
     e(112 -112) =      6.94154  eV     1   --> G_3            
     e(113 -113) =      7.63906  eV     1   --> G_4            
     e(114 -114) =      7.64037  eV     1   --> G_3            
     e(115 -115) =     10.27297  eV     1   --> G_3            
     e(116 -116) =     10.27375  eV     1   --> G_4            
     e(117 -117) =     10.42505  eV     1   --> G_4            
     e(118 -118) =     10.42879  eV     1   --> G_3            
     e(119 -119) =     10.45624  eV     1   --> G_3            
     e(120 -120) =     10.45868  eV     1   --> G_4            

 **************************************************************************

 **************************************************************************

                    xk=(   0.00000,   0.17107,   0.08105  )

     Band symmetry, C_s (m)     double point group:

     e(  1 -  1) =     -7.66728  eV     1   --> G_3            
     e(  2 -  3) =     -7.66628  eV     2   --> G_3            
     e(  2 -  3) =     -7.66628  eV     2   --> G_4            
     e(  4 -  4) =     -7.66549  eV     1   --> G_4            
     e(  5 -  5) =     -7.66282  eV     1   --> G_3            
     e(  6 -  6) =     -7.66232  eV     1   --> G_4            
     e(  7 -  7) =     -7.51595  eV     1   --> G_4            
     e(  8 -  8) =     -7.51552  eV     1   --> G_3            
     e(  9 -  9) =     -7.51428  eV     1   --> G_4            
     e( 10 - 10) =     -7.51410  eV     1   --> G_3            
     e( 11 - 11) =     -7.51186  eV     1   --> G_3            
     e( 12 - 12) =     -7.51159  eV     1   --> G_4            
     e( 13 - 13) =     -7.49085  eV     1   --> G_4            
     e( 14 - 14) =     -7.48912  eV     1   --> G_3            
     e( 15 - 15) =     -7.48860  eV     1   --> G_4            
     e( 16 - 16) =     -7.48760  eV     1   --> G_4            
     e( 17 - 17) =     -7.48724  eV     1   --> G_3            
     e( 18 - 18) =     -7.48653  eV     1   --> G_3            
     e( 19 - 19) =     -7.43173  eV     1   --> G_3            
     e( 20 - 20) =     -7.43114  eV     1   --> G_3            
     e( 21 - 21) =     -7.43058  eV     1   --> G_4            
     e( 22 - 23) =     -7.43019  eV     2   --> G_3            
     e( 22 - 23) =     -7.43019  eV     2   --> G_4            
     e( 24 - 24) =     -7.42945  eV     1   --> G_4            
     e( 25 - 25) =     -7.20029  eV     1   --> G_4            
     e( 26 - 26) =     -7.19901  eV     1   --> G_3            
     e( 27 - 27) =     -7.18797  eV     1   --> G_4            
     e( 28 - 28) =     -7.18700  eV     1   --> G_3            
     e( 29 - 29) =     -7.18405  eV     1   --> G_4            
     e( 30 - 30) =     -7.18261  eV     1   --> G_3            
     e( 31 - 31) =     -7.07313  eV     1   --> G_3            
     e( 32 - 32) =     -7.07253  eV     1   --> G_4            
     e( 33 - 33) =     -7.06556  eV     1   --> G_3            
     e( 34 - 34) =     -7.06545  eV     1   --> G_4            
     e( 35 - 35) =     -7.06339  eV     1   --> G_3            
     e( 36 - 36) =     -7.06302  eV     1   --> G_4            
     e( 37 - 37) =     -7.02043  eV     1   --> G_3            
     e( 38 - 38) =     -7.01989  eV     1   --> G_4            
     e( 39 - 39) =     -7.01917  eV     1   --> G_3            
     e( 40 - 40) =     -7.01876  eV     1   --> G_4            
     e( 41 - 41) =     -7.01836  eV     1   --> G_3            
     e( 42 - 42) =     -7.01776  eV     1   --> G_4            
     e( 43 - 44) =     -6.90200  eV     2   --> G_3            
     e( 43 - 44) =     -6.90200  eV     2   --> G_4            
     e( 45 - 46) =     -6.90031  eV     2   --> G_3            
     e( 45 - 46) =     -6.90031  eV     2   --> G_4            
     e( 47 - 48) =     -6.89684  eV     2   --> G_3            
     e( 47 - 48) =     -6.89684  eV     2   --> G_4            
     e( 49 - 50) =     -6.88870  eV     2   --> G_3            
     e( 49 - 50) =     -6.88870  eV     2   --> G_4            
     e( 51 - 51) =     -6.88787  eV     1   --> G_3            
     e( 52 - 52) =     -6.88769  eV     1   --> G_4            
     e( 53 - 53) =     -6.88757  eV     1   --> G_3            
     e( 54 - 54) =     -6.88739  eV     1   --> G_4            
     e( 55 - 56) =     -6.78194  eV     2   --> G_3            
     e( 55 - 56) =     -6.78194  eV     2   --> G_4            
     e( 57 - 58) =     -6.78157  eV     2   --> G_3            
     e( 57 - 58) =     -6.78157  eV     2   --> G_4            
     e( 59 - 60) =     -6.77890  eV     2   --> G_3            
     e( 59 - 60) =     -6.77890  eV     2   --> G_4            
     e( 61 - 61) =     -6.60796  eV     1   --> G_4            
     e( 62 - 62) =     -6.60784  eV     1   --> G_3            
     e( 63 - 63) =     -6.60159  eV     1   --> G_3            
     e( 64 - 64) =     -6.60121  eV     1   --> G_4            
     e( 65 - 65) =     -6.49410  eV     1   --> G_3            
     e( 66 - 66) =     -6.49363  eV     1   --> G_4            
     e( 67 - 67) =     -6.13393  eV     1   --> G_4            
     e( 68 - 68) =     -6.13350  eV     1   --> G_3            
     e( 69 - 69) =     -5.99739  eV     1   --> G_4            
     e( 70 - 70) =     -5.99703  eV     1   --> G_3            
     e( 71 - 71) =     -5.99571  eV     1   --> G_3            
     e( 72 - 72) =     -5.99538  eV     1   --> G_4            
     e( 73 - 73) =      0.49351  eV     1   --> G_3            
     e( 74 - 74) =      0.49374  eV     1   --> G_4            
     e( 75 - 75) =      0.49851  eV     1   --> G_4            
     e( 76 - 76) =      0.49869  eV     1   --> G_3            
     e( 77 - 78) =      0.80942  eV     2   --> G_3            
     e( 77 - 78) =      0.80942  eV     2   --> G_4            
     e( 79 - 79) =      3.26845  eV     1   --> G_4            
     e( 80 - 80) =      3.26867  eV     1   --> G_3            
     e( 81 - 81) =      3.70289  eV     1   --> G_3            
     e( 82 - 82) =      3.70368  eV     1   --> G_4            
     e( 83 - 83) =      3.72740  eV     1   --> G_4            
     e( 84 - 84) =      3.72807  eV     1   --> G_3            
     e( 85 - 86) =      4.28728  eV     2   --> G_3            
     e( 85 - 86) =      4.28728  eV     2   --> G_4            
     e( 87 - 87) =      4.29666  eV     1   --> G_3            
     e( 88 - 88) =      4.29676  eV     1   --> G_4            
     e( 89 - 89) =      4.43489  eV     1   --> G_3            
     e( 90 - 90) =      4.43599  eV     1   --> G_4            
     e( 91 - 91) =      4.51328  eV     1   --> G_4            
     e( 92 - 92) =      4.51339  eV     1   --> G_3            
     e( 93 - 93) =      4.97448  eV     1   --> G_4            
     e( 94 - 94) =      4.97600  eV     1   --> G_3            
     e( 95 - 95) =      4.99210  eV     1   --> G_3            
     e( 96 - 96) =      4.99326  eV     1   --> G_4            
     e( 97 - 97) =      5.29517  eV     1   --> G_3            
     e( 98 - 98) =      5.29547  eV     1   --> G_4            
     e( 99 - 99) =      5.31441  eV     1   --> G_4            
     e(100 -100) =      5.31592  eV     1   --> G_3            
     e(101 -101) =      5.39742  eV     1   --> G_3            
     e(102 -102) =      5.39834  eV     1   --> G_4            
     e(103 -103) =      5.51592  eV     1   --> G_4            
     e(104 -104) =      5.51618  eV     1   --> G_3            
     e(105 -105) =      5.60616  eV     1   --> G_3            
     e(106 -106) =      5.60672  eV     1   --> G_4            
     e(107 -107) =      5.62923  eV     1   --> G_4            
     e(108 -108) =      5.62961  eV     1   --> G_3            
     e(109 -109) =      6.91419  eV     1   --> G_3            
     e(110 -110) =      6.91610  eV     1   --> G_4            
     e(111 -111) =      6.95475  eV     1   --> G_4            
     e(112 -112) =      6.95670  eV     1   --> G_3            
     e(113 -113) =      7.57722  eV     1   --> G_4            
     e(114 -114) =      7.57857  eV     1   --> G_3            
     e(115 -115) =     10.41759  eV     1   --> G_3            
     e(116 -116) =     10.41868  eV     1   --> G_4            
     e(117 -117) =     10.44119  eV     1   --> G_4            
     e(118 -118) =     10.44599  eV     1   --> G_3            
     e(119 -119) =     10.50129  eV     1   --> G_3            
     e(120 -120) =     10.50667  eV     1   --> G_4            

 **************************************************************************

 **************************************************************************

                    xk=(   0.00000,   0.19245,   0.08105  )

     Band symmetry, C_s (m)     double point group:

     e(  1 -  1) =     -7.66934  eV     1   --> G_3            
     e(  2 -  3) =     -7.66824  eV     2   --> G_3            
     e(  2 -  3) =     -7.66824  eV     2   --> G_4            
     e(  4 -  4) =     -7.66739  eV     1   --> G_4            
     e(  5 -  5) =     -7.66487  eV     1   --> G_3            
     e(  6 -  6) =     -7.66431  eV     1   --> G_4            
     e(  7 -  7) =     -7.52428  eV     1   --> G_4            
     e(  8 -  8) =     -7.52368  eV     1   --> G_3            
     e(  9 -  9) =     -7.52171  eV     1   --> G_4            
     e( 10 - 10) =     -7.52149  eV     1   --> G_3            
     e( 11 - 11) =     -7.51701  eV     1   --> G_3            
     e( 12 - 12) =     -7.51687  eV     1   --> G_4            
     e( 13 - 13) =     -7.50079  eV     1   --> G_4            
     e( 14 - 14) =     -7.49913  eV     1   --> G_3            
     e( 15 - 15) =     -7.49632  eV     1   --> G_4            
     e( 16 - 16) =     -7.49497  eV     1   --> G_3            
     e( 17 - 17) =     -7.49478  eV     1   --> G_4            
     e( 18 - 18) =     -7.49373  eV     1   --> G_3            
     e( 19 - 19) =     -7.43296  eV     1   --> G_3            
     e( 20 - 20) =     -7.43235  eV     1   --> G_3            
     e( 21 - 21) =     -7.43180  eV     1   --> G_4            
     e( 22 - 22) =     -7.43142  eV     1   --> G_3            
     e( 23 - 23) =     -7.43131  eV     1   --> G_4            
     e( 24 - 24) =     -7.43070  eV     1   --> G_4            
     e( 25 - 25) =     -7.20189  eV     1   --> G_4            
     e( 26 - 26) =     -7.20071  eV     1   --> G_3            
     e( 27 - 27) =     -7.19025  eV     1   --> G_4            
     e( 28 - 28) =     -7.18937  eV     1   --> G_3            
     e( 29 - 29) =     -7.18667  eV     1   --> G_4            
     e( 30 - 30) =     -7.18523  eV     1   --> G_3            
     e( 31 - 31) =     -7.07408  eV     1   --> G_3            
     e( 32 - 32) =     -7.07348  eV     1   --> G_4            
     e( 33 - 34) =     -7.06702  eV     2   --> G_3            
     e( 33 - 34) =     -7.06702  eV     2   --> G_4            
     e( 35 - 35) =     -7.06490  eV     1   --> G_3            
     e( 36 - 36) =     -7.06452  eV     1   --> G_4            
     e( 37 - 37) =     -7.02062  eV     1   --> G_3            
     e( 38 - 38) =     -7.02012  eV     1   --> G_4            
     e( 39 - 39) =     -7.01946  eV     1   --> G_3            
     e( 40 - 40) =     -7.01907  eV     1   --> G_4            
     e( 41 - 41) =     -7.01880  eV     1   --> G_3            
     e( 42 - 42) =     -7.01828  eV     1   --> G_4            
     e( 43 - 43) =     -6.89350  eV     1   --> G_4            
     e( 44 - 44) =     -6.89317  eV     1   --> G_3            
     e( 45 - 45) =     -6.89285  eV     1   --> G_4            
     e( 46 - 46) =     -6.89260  eV     1   --> G_3            
     e( 47 - 47) =     -6.89177  eV     1   --> G_4            
     e( 48 - 48) =     -6.89153  eV     1   --> G_3            
     e( 49 - 49) =     -6.88368  eV     1   --> G_3            
     e( 50 - 50) =     -6.88331  eV     1   --> G_4            
     e( 51 - 51) =     -6.88207  eV     1   --> G_3            
     e( 52 - 52) =     -6.88165  eV     1   --> G_4            
     e( 53 - 53) =     -6.87982  eV     1   --> G_3            
     e( 54 - 54) =     -6.87939  eV     1   --> G_4            
     e( 55 - 56) =     -6.77781  eV     2   --> G_3            
     e( 55 - 56) =     -6.77781  eV     2   --> G_4            
     e( 57 - 58) =     -6.77745  eV     2   --> G_3            
     e( 57 - 58) =     -6.77745  eV     2   --> G_4            
     e( 59 - 59) =     -6.77576  eV     1   --> G_4            
     e( 60 - 60) =     -6.77566  eV     1   --> G_3            
     e( 61 - 61) =     -6.53521  eV     1   --> G_4            
     e( 62 - 62) =     -6.53493  eV     1   --> G_3            
     e( 63 - 63) =     -6.52901  eV     1   --> G_3            
     e( 64 - 64) =     -6.52852  eV     1   --> G_4            
     e( 65 - 65) =     -6.41920  eV     1   --> G_3            
     e( 66 - 66) =     -6.41875  eV     1   --> G_4            
     e( 67 - 67) =     -6.07832  eV     1   --> G_4            
     e( 68 - 68) =     -6.07788  eV     1   --> G_3            
     e( 69 - 69) =     -5.94069  eV     1   --> G_4            
     e( 70 - 70) =     -5.94016  eV     1   --> G_3            
     e( 71 - 71) =     -5.93876  eV     1   --> G_3            
     e( 72 - 72) =     -5.93824  eV     1   --> G_4            
     e( 73 - 73) =      0.52645  eV     1   --> G_3            
     e( 74 - 74) =      0.52675  eV     1   --> G_4            
     e( 75 - 75) =      0.53393  eV     1   --> G_4            
     e( 76 - 76) =      0.53416  eV     1   --> G_3            
     e( 77 - 78) =      0.81846  eV     2   --> G_3            
     e( 77 - 78) =      0.81846  eV     2   --> G_4            
     e( 79 - 79) =      3.27589  eV     1   --> G_4            
     e( 80 - 80) =      3.27615  eV     1   --> G_3            
     e( 81 - 81) =      3.53943  eV     1   --> G_3            
     e( 82 - 82) =      3.54039  eV     1   --> G_4            
     e( 83 - 83) =      3.57390  eV     1   --> G_4            
     e( 84 - 84) =      3.57480  eV     1   --> G_3            
     e( 85 - 86) =      4.03383  eV     2   --> G_3            
     e( 85 - 86) =      4.03383  eV     2   --> G_4            
     e( 87 - 87) =      4.04253  eV     1   --> G_3            
     e( 88 - 88) =      4.04269  eV     1   --> G_4            
     e( 89 - 89) =      4.22015  eV     1   --> G_3            
     e( 90 - 90) =      4.22113  eV     1   --> G_4            
     e( 91 - 91) =      4.28233  eV     1   --> G_3            
     e( 92 - 92) =      4.28244  eV     1   --> G_4            
     e( 93 - 93) =      4.91395  eV     1   --> G_4            
     e( 94 - 94) =      4.91561  eV     1   --> G_3            
     e( 95 - 95) =      4.93524  eV     1   --> G_3            
     e( 96 - 96) =      4.93655  eV     1   --> G_4            
     e( 97 - 97) =      5.21523  eV     1   --> G_3            
     e( 98 - 98) =      5.21554  eV     1   --> G_4            
     e( 99 - 99) =      5.23226  eV     1   --> G_4            
     e(100 -100) =      5.23389  eV     1   --> G_3            
     e(101 -101) =      5.32148  eV     1   --> G_3            
     e(102 -102) =      5.32240  eV     1   --> G_4            
     e(103 -103) =      5.44393  eV     1   --> G_4            
     e(104 -104) =      5.44413  eV     1   --> G_3            
     e(105 -105) =      5.54154  eV     1   --> G_3            
[...]
     e( 46 - 47) =     -6.87310  eV     2   --> G_5            
     e( 46 - 47) =     -6.87310  eV     2   --> G_6            
     e( 48 - 48) =     -6.87290  eV     1   --> G_4            
     e( 49 - 49) =     -6.86841  eV     1   --> G_4            
     e( 50 - 51) =     -6.86794  eV     2   --> G_5            
     e( 50 - 51) =     -6.86794  eV     2   --> G_6            
     e( 52 - 52) =     -6.83631  eV     1   --> G_6            
     e( 53 - 54) =     -6.83585  eV     2   --> G_4            
     e( 53 - 54) =     -6.83585  eV     2   --> G_5            
     e( 55 - 55) =     -6.70337  eV     1   --> G_5            
     e( 56 - 56) =     -6.70301  eV     1   --> G_4            
     e( 57 - 57) =     -6.70288  eV     1   --> G_6            
     e( 58 - 58) =     -6.69878  eV     1   --> G_4            
     e( 59 - 59) =     -6.69841  eV     1   --> G_6            
     e( 60 - 60) =     -6.69829  eV     1   --> G_5            
     e( 61 - 61) =     -4.72480  eV     1   --> G_6            
     e( 62 - 62) =     -4.72423  eV     1   --> G_4            
     e( 63 - 63) =     -4.72388  eV     1   --> G_5            
     e( 64 - 64) =     -4.69877  eV     1   --> G_5            
     e( 65 - 65) =     -4.69820  eV     1   --> G_6            
     e( 66 - 66) =     -4.69790  eV     1   --> G_4            
     e( 67 - 67) =     -4.51757  eV     1   --> G_6            
     e( 68 - 68) =     -4.51710  eV     1   --> G_5            
     e( 69 - 69) =     -4.51696  eV     1   --> G_4            
     e( 70 - 70) =     -4.50749  eV     1   --> G_5            
     e( 71 - 71) =     -4.50704  eV     1   --> G_4            
     e( 72 - 72) =     -4.50689  eV     1   --> G_6            
     e( 73 - 73) =     -0.37831  eV     1   --> G_5            
     e( 74 - 74) =     -0.37781  eV     1   --> G_6            
     e( 75 - 75) =     -0.37604  eV     1   --> G_4            
     e( 76 - 76) =     -0.36415  eV     1   --> G_4            
     e( 77 - 77) =     -0.36365  eV     1   --> G_5            
     e( 78 - 78) =     -0.36188  eV     1   --> G_6            
     e( 79 - 79) =      0.79108  eV     1   --> G_5            
     e( 80 - 80) =      0.79189  eV     1   --> G_6            
     e( 81 - 81) =      0.79211  eV     1   --> G_4            
     e( 82 - 82) =      0.81474  eV     1   --> G_4            
     e( 83 - 83) =      0.81555  eV     1   --> G_5            
     e( 84 - 84) =      0.81577  eV     1   --> G_6            
     e( 85 - 85) =      2.14345  eV     1   --> G_4            
     e( 86 - 86) =      2.14403  eV     1   --> G_5            
     e( 87 - 87) =      2.14504  eV     1   --> G_6            
     e( 88 - 88) =      2.15915  eV     1   --> G_6            
     e( 89 - 89) =      2.15971  eV     1   --> G_4            
     e( 90 - 90) =      2.16071  eV     1   --> G_5            
     e( 91 - 91) =      2.74054  eV     1   --> G_4            
     e( 92 - 93) =      2.74116  eV     2   --> G_5            
     e( 92 - 93) =      2.74116  eV     2   --> G_6            
     e( 94 - 94) =      2.74408  eV     1   --> G_6            
     e( 95 - 96) =      2.74466  eV     2   --> G_4            
     e( 95 - 96) =      2.74466  eV     2   --> G_5            
     e( 97 - 98) =      4.33460  eV     2   -->   ?
     e( 99 - 99) =      4.33498  eV     1   -->   ?
     e(100 -101) =      4.35393  eV     2   -->   ?
     e(102 -102) =      4.35432  eV     1   -->   ?
     e(103 -103) =      5.09243  eV     1   --> G_5            
     e(104 -104) =      5.09335  eV     1   -->   ?
     e(105 -105) =      5.09346  eV     1   -->   ?
     e(106 -106) =      5.09784  eV     1   -->   ?
     e(107 -107) =      5.09841  eV     1   -->   ?
     e(108 -108) =      5.09897  eV     1   -->   ?
     e(109 -109) =      5.43683  eV     1   -->   ?
     e(110 -110) =      5.43729  eV     1   -->   ?
     e(111 -111) =      5.43751  eV     1   -->   ?
     e(112 -113) =      5.44528  eV     2   -->   ?
     e(114 -114) =      5.44593  eV     1   -->   ?
     e(115 -115) =      9.50634  eV     1   -->   ?
     e(116 -116) =      9.50647  eV     1   -->   ?
     e(117 -117) =      9.50697  eV     1   -->   ?
     e(118 -118) =      9.52413  eV     1   -->   ?
     e(119 -119) =      9.52426  eV     1   -->   ?
     e(120 -120) =      9.52475  eV     1   -->   ?

 **************************************************************************

 **************************************************************************

                    xk=(   0.33333,   0.57734,   0.02026  )

     Band symmetry, C_3 (3)     double point group:

     e(  1 -  1) =     -7.71972  eV     1   --> G_6            
     e(  2 -  2) =     -7.71924  eV     1   --> G_4            
     e(  3 -  3) =     -7.71871  eV     1   --> G_5            
     e(  4 -  4) =     -7.67739  eV     1   --> G_5            
     e(  5 -  5) =     -7.67695  eV     1   --> G_6            
     e(  6 -  6) =     -7.67632  eV     1   --> G_4            
     e(  7 -  7) =     -7.65537  eV     1   --> G_6            
     e(  8 -  8) =     -7.65487  eV     1   --> G_4            
     e(  9 -  9) =     -7.65457  eV     1   --> G_5            
     e( 10 - 10) =     -7.64818  eV     1   --> G_5            
     e( 11 - 11) =     -7.64782  eV     1   --> G_6            
     e( 12 - 12) =     -7.64704  eV     1   --> G_4            
     e( 13 - 13) =     -7.58234  eV     1   --> G_4            
     e( 14 - 14) =     -7.58204  eV     1   --> G_5            
     e( 15 - 15) =     -7.58094  eV     1   --> G_6            
     e( 16 - 16) =     -7.47728  eV     1   --> G_4            
     e( 17 - 17) =     -7.47690  eV     1   --> G_5            
     e( 18 - 18) =     -7.47626  eV     1   --> G_6            
     e( 19 - 19) =     -7.39363  eV     1   --> G_6            
     e( 20 - 20) =     -7.39315  eV     1   --> G_4            
     e( 21 - 21) =     -7.39264  eV     1   --> G_5            
     e( 22 - 22) =     -7.39055  eV     1   --> G_6            
     e( 23 - 23) =     -7.39016  eV     1   --> G_4            
     e( 24 - 24) =     -7.39004  eV     1   --> G_5            
     e( 25 - 25) =     -7.34830  eV     1   --> G_5            
     e( 26 - 26) =     -7.34787  eV     1   --> G_6            
     e( 27 - 27) =     -7.34718  eV     1   --> G_4            
     e( 28 - 28) =     -7.14944  eV     1   --> G_6            
     e( 29 - 29) =     -7.14905  eV     1   --> G_4            
     e( 30 - 30) =     -7.14847  eV     1   --> G_5            
     e( 31 - 31) =     -7.13818  eV     1   --> G_5            
     e( 32 - 32) =     -7.13773  eV     1   --> G_6            
     e( 33 - 33) =     -7.13727  eV     1   --> G_4            
     e( 34 - 34) =     -7.07864  eV     1   --> G_6            
     e( 35 - 35) =     -7.07821  eV     1   --> G_4            
     e( 36 - 36) =     -7.07788  eV     1   --> G_5            
     e( 37 - 37) =     -6.98239  eV     1   --> G_4            
     e( 38 - 38) =     -6.98194  eV     1   --> G_5            
     e( 39 - 39) =     -6.98177  eV     1   --> G_6            
     e( 40 - 40) =     -6.93187  eV     1   --> G_4            
     e( 41 - 41) =     -6.93142  eV     1   --> G_5            
     e( 42 - 42) =     -6.93116  eV     1   --> G_6            
     e( 43 - 44) =     -6.87371  eV     2   --> G_5            
     e( 43 - 44) =     -6.87371  eV     2   --> G_6            
     e( 45 - 45) =     -6.87329  eV     1   --> G_4            
     e( 46 - 47) =     -6.87310  eV     2   --> G_5            
     e( 46 - 47) =     -6.87310  eV     2   --> G_6            
     e( 48 - 48) =     -6.87290  eV     1   --> G_4            
     e( 49 - 49) =     -6.86841  eV     1   --> G_4            
     e( 50 - 51) =     -6.86794  eV     2   --> G_5            
     e( 50 - 51) =     -6.86794  eV     2   --> G_6            
     e( 52 - 52) =     -6.83631  eV     1   --> G_6            
     e( 53 - 54) =     -6.83584  eV     2   --> G_4            
     e( 53 - 54) =     -6.83584  eV     2   --> G_5            
     e( 55 - 55) =     -6.70337  eV     1   --> G_5            
     e( 56 - 56) =     -6.70301  eV     1   --> G_4            
     e( 57 - 57) =     -6.70288  eV     1   --> G_6            
     e( 58 - 58) =     -6.69878  eV     1   --> G_4            
     e( 59 - 59) =     -6.69841  eV     1   --> G_6            
     e( 60 - 60) =     -6.69829  eV     1   --> G_5            
     e( 61 - 61) =     -4.72480  eV     1   --> G_6            
     e( 62 - 62) =     -4.72423  eV     1   --> G_4            
     e( 63 - 63) =     -4.72388  eV     1   --> G_5            
     e( 64 - 64) =     -4.69877  eV     1   --> G_5            
     e( 65 - 65) =     -4.69820  eV     1   --> G_6            
     e( 66 - 66) =     -4.69790  eV     1   --> G_4            
     e( 67 - 67) =     -4.51757  eV     1   --> G_6            
     e( 68 - 68) =     -4.51710  eV     1   --> G_5            
     e( 69 - 69) =     -4.51696  eV     1   --> G_4            
     e( 70 - 70) =     -4.50749  eV     1   --> G_5            
     e( 71 - 71) =     -4.50704  eV     1   --> G_4            
     e( 72 - 72) =     -4.50689  eV     1   --> G_6            
     e( 73 - 73) =     -0.37831  eV     1   --> G_5            
     e( 74 - 74) =     -0.37781  eV     1   --> G_6            
     e( 75 - 75) =     -0.37605  eV     1   --> G_4            
     e( 76 - 76) =     -0.36415  eV     1   --> G_4            
     e( 77 - 77) =     -0.36365  eV     1   --> G_5            
     e( 78 - 78) =     -0.36188  eV     1   --> G_6            
     e( 79 - 79) =      0.79108  eV     1   --> G_5            
     e( 80 - 80) =      0.79189  eV     1   --> G_6            
     e( 81 - 81) =      0.79211  eV     1   --> G_4            
     e( 82 - 82) =      0.81474  eV     1   --> G_4            
     e( 83 - 83) =      0.81556  eV     1   --> G_5            
     e( 84 - 84) =      0.81577  eV     1   --> G_6            
     e( 85 - 85) =      2.14339  eV     1   --> G_4            
     e( 86 - 86) =      2.14397  eV     1   --> G_5            
     e( 87 - 87) =      2.14498  eV     1   --> G_6            
     e( 88 - 88) =      2.15907  eV     1   --> G_6            
     e( 89 - 89) =      2.15963  eV     1   --> G_4            
     e( 90 - 90) =      2.16063  eV     1   --> G_5            
     e( 91 - 91) =      2.74071  eV     1   --> G_4            
     e( 92 - 93) =      2.74133  eV     2   --> G_5            
     e( 92 - 93) =      2.74133  eV     2   --> G_6            
     e( 94 - 94) =      2.74423  eV     1   --> G_6            
     e( 95 - 96) =      2.74481  eV     2   --> G_4            
     e( 95 - 96) =      2.74481  eV     2   --> G_5            
     e( 97 - 98) =      4.33367  eV     2   -->   ?
     e( 99 - 99) =      4.33405  eV     1   -->   ?
     e(100 -101) =      4.35310  eV     2   -->   ?
     e(102 -102) =      4.35349  eV     1   -->   ?
     e(103 -103) =      5.09590  eV     1   -->   ?
     e(104 -105) =      5.09699  eV     2   --> G_4            
     e(104 -105) =      5.09699  eV     2   -->   ?
     e(106 -106) =      5.10003  eV     1   -->   ?
     e(107 -107) =      5.10082  eV     1   -->   ?
     e(108 -108) =      5.10133  eV     1   -->   ?
     e(109 -109) =      5.43543  eV     1   -->   ?
     e(110 -110) =      5.43586  eV     1   -->   ?
     e(111 -111) =      5.43623  eV     1   -->   ?
     e(112 -113) =      5.44197  eV     2   --> G_5            
     e(112 -113) =      5.44197  eV     2   --> G_6            
     e(114 -114) =      5.44274  eV     1   --> G_4            
     e(115 -115) =      9.50830  eV     1   -->   ?
     e(116 -116) =      9.50842  eV     1   -->   ?
     e(117 -117) =      9.50892  eV     1   --> G_5            
     e(118 -118) =      9.52613  eV     1   -->   ?
     e(119 -119) =      9.52625  eV     1   -->   ?
     e(120 -120) =      9.52675  eV     1   --> G_4            

 **************************************************************************

 **************************************************************************

                    xk=(   0.33333,   0.57734,  -0.00000  )

     Band symmetry, C_3 (3)     double point group:

     e(  1 -  1) =     -7.71972  eV     1   --> G_6            
     e(  2 -  2) =     -7.71924  eV     1   --> G_4            
     e(  3 -  3) =     -7.71871  eV     1   --> G_5            
     e(  4 -  4) =     -7.67739  eV     1   --> G_5            
     e(  5 -  5) =     -7.67695  eV     1   --> G_6            
     e(  6 -  6) =     -7.67632  eV     1   --> G_4            
     e(  7 -  7) =     -7.65537  eV     1   --> G_6            
     e(  8 -  8) =     -7.65487  eV     1   --> G_4            
     e(  9 -  9) =     -7.65457  eV     1   --> G_5            
     e( 10 - 10) =     -7.64818  eV     1   --> G_5            
     e( 11 - 11) =     -7.64782  eV     1   --> G_6            
     e( 12 - 12) =     -7.64704  eV     1   --> G_4            
     e( 13 - 13) =     -7.58234  eV     1   --> G_4            
     e( 14 - 14) =     -7.58204  eV     1   --> G_5            
     e( 15 - 15) =     -7.58094  eV     1   --> G_6            
     e( 16 - 16) =     -7.47728  eV     1   --> G_4            
     e( 17 - 17) =     -7.47690  eV     1   --> G_5            
     e( 18 - 18) =     -7.47626  eV     1   --> G_6            
     e( 19 - 19) =     -7.39363  eV     1   --> G_6            
     e( 20 - 20) =     -7.39315  eV     1   --> G_4            
     e( 21 - 21) =     -7.39264  eV     1   --> G_5            
     e( 22 - 22) =     -7.39055  eV     1   --> G_6            
     e( 23 - 23) =     -7.39016  eV     1   --> G_4            
     e( 24 - 24) =     -7.39004  eV     1   --> G_5            
     e( 25 - 25) =     -7.34830  eV     1   --> G_5            
     e( 26 - 26) =     -7.34788  eV     1   --> G_6            
     e( 27 - 27) =     -7.34718  eV     1   --> G_4            
     e( 28 - 28) =     -7.14944  eV     1   --> G_6            
     e( 29 - 29) =     -7.14905  eV     1   --> G_4            
     e( 30 - 30) =     -7.14847  eV     1   --> G_5            
     e( 31 - 31) =     -7.13818  eV     1   --> G_5            
     e( 32 - 32) =     -7.13773  eV     1   --> G_6            
     e( 33 - 33) =     -7.13727  eV     1   --> G_4            
     e( 34 - 34) =     -7.07864  eV     1   --> G_6            
     e( 35 - 35) =     -7.07821  eV     1   --> G_4            
     e( 36 - 36) =     -7.07788  eV     1   --> G_5            
     e( 37 - 37) =     -6.98239  eV     1   --> G_4            
     e( 38 - 38) =     -6.98194  eV     1   --> G_5            
     e( 39 - 39) =     -6.98177  eV     1   --> G_6            
     e( 40 - 40) =     -6.93187  eV     1   --> G_4            
     e( 41 - 41) =     -6.93142  eV     1   --> G_5            
     e( 42 - 42) =     -6.93116  eV     1   --> G_6            
     e( 43 - 44) =     -6.87371  eV     2   --> G_5            
     e( 43 - 44) =     -6.87371  eV     2   --> G_6            
     e( 45 - 45) =     -6.87329  eV     1   --> G_4            
     e( 46 - 47) =     -6.87310  eV     2   --> G_5            
     e( 46 - 47) =     -6.87310  eV     2   --> G_6            
     e( 48 - 48) =     -6.87290  eV     1   --> G_4            
     e( 49 - 49) =     -6.86841  eV     1   --> G_4            
     e( 50 - 51) =     -6.86795  eV     2   --> G_5            
     e( 50 - 51) =     -6.86795  eV     2   --> G_6            
     e( 52 - 52) =     -6.83631  eV     1   --> G_6            
     e( 53 - 54) =     -6.83585  eV     2   --> G_4            
     e( 53 - 54) =     -6.83585  eV     2   --> G_5            
     e( 55 - 55) =     -6.70337  eV     1   --> G_5            
     e( 56 - 56) =     -6.70301  eV     1   --> G_4            
     e( 57 - 57) =     -6.70288  eV     1   --> G_6            
     e( 58 - 58) =     -6.69878  eV     1   --> G_4            
     e( 59 - 59) =     -6.69841  eV     1   --> G_6            
     e( 60 - 60) =     -6.69829  eV     1   --> G_5            
     e( 61 - 61) =     -4.72480  eV     1   --> G_6            
     e( 62 - 62) =     -4.72423  eV     1   --> G_4            
     e( 63 - 63) =     -4.72388  eV     1   --> G_5            
     e( 64 - 64) =     -4.69877  eV     1   --> G_5            
     e( 65 - 65) =     -4.69820  eV     1   --> G_6            
     e( 66 - 66) =     -4.69790  eV     1   --> G_4            
     e( 67 - 67) =     -4.51757  eV     1   --> G_6            
     e( 68 - 68) =     -4.51710  eV     1   --> G_5            
     e( 69 - 69) =     -4.51696  eV     1   --> G_4            
     e( 70 - 70) =     -4.50749  eV     1   --> G_5            
     e( 71 - 71) =     -4.50704  eV     1   --> G_4            
     e( 72 - 72) =     -4.50689  eV     1   --> G_6            
     e( 73 - 73) =     -0.37831  eV     1   --> G_5            
     e( 74 - 74) =     -0.37781  eV     1   --> G_6            
     e( 75 - 75) =     -0.37605  eV     1   --> G_4            
     e( 76 - 76) =     -0.36415  eV     1   --> G_4            
     e( 77 - 77) =     -0.36365  eV     1   --> G_5            
     e( 78 - 78) =     -0.36188  eV     1   --> G_6            
     e( 79 - 79) =      0.79108  eV     1   --> G_5            
     e( 80 - 80) =      0.79189  eV     1   --> G_6            
     e( 81 - 81) =      0.79211  eV     1   --> G_4            
     e( 82 - 82) =      0.81474  eV     1   --> G_4            
     e( 83 - 83) =      0.81556  eV     1   --> G_5            
     e( 84 - 84) =      0.81577  eV     1   --> G_6            
     e( 85 - 85) =      2.14336  eV     1   --> G_4            
     e( 86 - 86) =      2.14395  eV     1   --> G_5            
     e( 87 - 87) =      2.14496  eV     1   --> G_6            
     e( 88 - 88) =      2.15904  eV     1   --> G_6            
     e( 89 - 89) =      2.15960  eV     1   --> G_4            
     e( 90 - 90) =      2.16060  eV     1   --> G_5            
     e( 91 - 91) =      2.74077  eV     1   --> G_4            
     e( 92 - 93) =      2.74140  eV     2   --> G_5            
     e( 92 - 93) =      2.74140  eV     2   --> G_6            
     e( 94 - 94) =      2.74429  eV     1   --> G_6            
     e( 95 - 96) =      2.74487  eV     2   --> G_4            
     e( 95 - 96) =      2.74487  eV     2   --> G_5            
     e( 97 - 98) =      4.33329  eV     2   -->   ?
     e( 99 - 99) =      4.33366  eV     1   -->   ?
     e(100 -101) =      4.35276  eV     2   -->   ?
     e(102 -102) =      4.35314  eV     1   -->   ?
     e(103 -103) =      5.09740  eV     1   --> G_5            
     e(104 -104) =      5.09855  eV     1   -->   ?
     e(105 -105) =      5.09877  eV     1   -->   ?
     e(106 -106) =      5.10076  eV     1   -->   ?
     e(107 -107) =      5.10177  eV     1   -->   ?
     e(108 -108) =      5.10223  eV     1   -->   ?
     e(109 -109) =      5.43495  eV     1   -->   ?
     e(110 -110) =      5.43535  eV     1   -->   ?
     e(111 -111) =      5.43585  eV     1   --> G_5            
     e(112 -112) =      5.44042  eV     1   -->   ?
     e(113 -113) =      5.44058  eV     1   -->   ?
     e(114 -114) =      5.44131  eV     1   --> G_4            
     e(115 -115) =      9.50912  eV     1   -->   ?
     e(116 -116) =      9.50923  eV     1   -->   ?
     e(117 -117) =      9.50973  eV     1   --> G_5            
     e(118 -118) =      9.52697  eV     1   -->   ?
     e(119 -119) =      9.52709  eV     1   -->   ?
     e(120 -120) =      9.52758  eV     1   --> G_4            

 **************************************************************************
 
     BANDS        : 28m12.62s CPU    29m 3.43s WALL

 
   This run was terminated on:  11:53:45   7Apr2022            

=------------------------------------------------------------------------------=
   JOB DONE.
=------------------------------------------------------------------------------=
