
     Program PWSCF v.6.1 (svn rev. 13369) starts on  6Apr2022 at 23:14:26 

     This program is part of the open-source Quantum ESPRESSO suite
     for quantum simulation of materials; please cite
         "P. Giannozzi et al., J. Phys.:Condens. Matter 21 395502 (2009);
          URL http://www.quantum-espresso.org", 
     in publications or presentations arising from this work. More details at
     http://www.quantum-espresso.org/quote

     Parallel version (MPI), running on    48 processors
     R & G space division:  proc/nbgrp/npool/nimage =      48
     Reading input from GaSgamma_relax.in
Warning: card &IONS ignored
Warning: card / ignored
Warning: card &CELL ignored
Warning: card     CELL_DOFREE='ALL' ignored
Warning: card / ignored

     Current dimensions of program PWSCF are:
     Max number of different atomic species (ntypx) = 10
     Max number of k-points (npk) =  40000
     Max angular momentum in pseudopotentials (lmaxx) =  3

     IMPORTANT: XC functional enforced from input :
     Exchange-correlation      = SLA+PW+PSX+PSC ( 1  4 10  8 0 0)
     Any further DFT definition will be discarded
     Please, verify this is what you really want


     Subspace diagonalization in iterative solution of the eigenvalue problem:
     one sub-group per band group will be used
     scalapack distributed-memory algorithm (size of sub-group:  4*  4 procs)

 
     Parallelization info
     --------------------
     sticks:   dense  smooth     PW     G-vecs:    dense   smooth      PW
     Min          39      39     10                 8529     8529    1210
     Max          40      40     11                 8566     8566    1257
     Sum        1891    1891    511               410167   410167   59301
 


     bravais-lattice index     =            0
     lattice parameter (alat)  =       6.7628  a.u.
     unit-cell volume          =    1652.4844 (a.u.)^3
     number of atoms/cell      =           12
     number of atomic types    =            2
     number of electrons       =       114.00
     number of Kohn-Sham states=          114
     kinetic-energy cutoff     =     150.0000  Ry
     charge density cutoff     =     600.0000  Ry
     convergence threshold     =      7.0E-10
     mixing beta               =       0.7000
     number of iterations used =            8  plain     mixing
     Exchange-correlation      = SLA+PW+PSX+PSC ( 1  4 10  8 0 0)
     Non magnetic calculation with spin-orbit


     celldm(1)=   6.762775  celldm(2)=   0.000000  celldm(3)=   0.000000
     celldm(4)=   0.000000  celldm(5)=   0.000000  celldm(6)=   0.000000

     crystal axes: (cart. coord. in units of alat)
               a(1) = (   1.000000   0.000000   0.000000 )  
               a(2) = (  -0.500000   0.866025   0.000000 )  
               a(3) = (   0.000000   0.000000   6.169244 )  

     reciprocal axes: (cart. coord. in units 2 pi/alat)
               b(1) = (  1.000000  0.577350 -0.000000 )  
               b(2) = (  0.000000  1.154701 -0.000000 )  
               b(3) = (  0.000000  0.000000  0.162094 )  


     PseudoPot. # 1 for Ga read from file:
     /home/mclaro/pseudo/ONCVPSP/sg15/Ga_ONCV_PBE_fr.upf
     MD5 check sum: 291fdaf421ec3a7833e0cf5917f67014
     Pseudo is Norm-conserving, Zval = 13.0
     Generated using ONCVPSP code by D. R. Hamann
     Using radial grid of 1926 points, 10 beta functions with: 
                l(1) =   0
                l(2) =   0
                l(3) =   1
                l(4) =   1
                l(5) =   1
                l(6) =   1
                l(7) =   2
                l(8) =   2
                l(9) =   2
               l(10) =   2

     PseudoPot. # 2 for S  read from file:
     /home/mclaro/pseudo/ONCVPSP/sg15/S_ONCV_PBE_fr.upf
     MD5 check sum: 5283c4e0603dd04c7219414e5521bad4
     Pseudo is Norm-conserving, Zval =  6.0
     Generated using ONCVPSP code by D. R. Hamann
     Using radial grid of 1146 points,  6 beta functions with: 
                l(1) =   0
                l(2) =   0
                l(3) =   1
                l(4) =   1
                l(5) =   1
                l(6) =   1

     atomic species   valence    mass     pseudopotential
        Ga            13.00    69.72300     Ga( 1.00)
        S              6.00    32.06500     S ( 1.00)

      6 Sym. Ops. (no inversion) found


                                    s                        frac. trans.

      isym =  1     identity                                     

 cryst.   s( 1) = (     1          0          0      )
                  (     0          1          0      )
                  (     0          0          1      )

 cart.    s( 1) = (  1.0000000  0.0000000 -0.0000000 )
                  (  0.0000000  1.0000000 -0.0000000 )
                  (  0.0000000  0.0000000  1.0000000 )


      isym =  2     120 deg rotation - cryst. axis [0,0,1]       

 cryst.   s( 2) = (     0          1          0      )
                  (    -1         -1          0      )
                  (     0          0          1      )

 cart.    s( 2) = ( -0.5000000 -0.8660254  0.0000000 )
                  (  0.8660254 -0.5000000  0.0000000 )
                  (  0.0000000  0.0000000  1.0000000 )


      isym =  3     120 deg rotation - cryst. axis [0,0,-1]      

 cryst.   s( 3) = (    -1         -1          0      )
                  (     1          0          0      )
                  (     0          0          1      )

 cart.    s( 3) = ( -0.5000000  0.8660254  0.0000000 )
                  ( -0.8660254 -0.5000000  0.0000000 )
                  (  0.0000000  0.0000000  1.0000000 )


      isym =  4     inv. 180 deg rotation - cart. axis [1,0,0]   

 cryst.   s( 4) = (    -1          0          0      )
                  (     1          1          0      )
                  (     0          0          1      )

 cart.    s( 4) = ( -1.0000000  0.0000000  0.0000000 )
                  (  0.0000000  1.0000000 -0.0000000 )
                  (  0.0000000  0.0000000  1.0000000 )


      isym =  5     inv. 180 deg rotation - cryst. axis [0,1,0]  

 cryst.   s( 5) = (     1          1          0      )
                  (     0         -1          0      )
                  (     0          0          1      )

 cart.    s( 5) = (  0.5000000  0.8660254 -0.0000000 )
                  (  0.8660254 -0.5000000  0.0000000 )
                  (  0.0000000  0.0000000  1.0000000 )


      isym =  6     inv. 180 deg rotation - cryst. axis [1,1,0]  

 cryst.   s( 6) = (     0         -1          0      )
                  (    -1          0          0      )
                  (     0          0          1      )

 cart.    s( 6) = (  0.5000000 -0.8660254  0.0000000 )
                  ( -0.8660254 -0.5000000  0.0000000 )
                  (  0.0000000  0.0000000  1.0000000 )


   Cartesian axes

     site n.     atom                  positions (alat units)
         1           S   tau(   1) = (   0.0000000   0.0000000   1.4618049  )
         2           S   tau(   2) = (  -0.0000000   0.5773503   0.5923321  )
         3           S   tau(   3) = (   0.5000000   0.2886751   3.5189287  )
         4           S   tau(   4) = (   0.0000000   0.0000000   2.6480520  )
         5           S   tau(   5) = (  -0.0000000   0.5773503   5.5757237  )
         6           S   tau(   6) = (   0.5000000   0.2886751   4.7047725  )
         7           Ga  tau(   7) = (   0.5000000   0.2886751   1.7416346  )
         8           Ga  tau(   8) = (   0.0000000   0.0000000   0.3125632  )
         9           Ga  tau(   9) = (  -0.0000000   0.5773503   3.7986932  )
        10           Ga  tau(  10) = (   0.5000000   0.2886751   2.3681520  )
        11           Ga  tau(  11) = (   0.0000000   0.0000000   5.8554796  )
        12           Ga  tau(  12) = (  -0.0000000   0.5773503   4.4249882  )

   Crystallographic axes

     site n.     atom                  positions (cryst. coord.)
         1           S   tau(   1) = (  0.0000000  0.0000000  0.2369504  )
         2           S   tau(   2) = (  0.3333333  0.6666667  0.0960137  )
         3           S   tau(   3) = (  0.6666667  0.3333333  0.5703987  )
         4           S   tau(   4) = (  0.0000000  0.0000000  0.4292344  )
         5           S   tau(   5) = (  0.3333333  0.6666667  0.9037937  )
         6           S   tau(   6) = (  0.6666667  0.3333333  0.7626174  )
         7           Ga  tau(   7) = (  0.6666667  0.3333333  0.2823093  )
         8           Ga  tau(   8) = (  0.0000000 -0.0000000  0.0506648  )
         9           Ga  tau(   9) = (  0.3333333  0.6666667  0.6157470  )
        10           Ga  tau(  10) = (  0.6666667  0.3333333  0.3838642  )
        11           Ga  tau(  11) = ( -0.0000000  0.0000000  0.9491406  )
        12           Ga  tau(  12) = (  0.3333333  0.6666667  0.7172659  )

     number of k points=   119
                       cart. coord. in units 2pi/alat
        k(    1) = (   0.0000000   0.0000000   0.0000000), wk =   0.0008889
        k(    2) = (   0.0000000   0.0000000   0.0324189), wk =   0.0017778
        k(    3) = (   0.0000000   0.0000000   0.0648378), wk =   0.0017778
        k(    4) = (   0.0000000   0.0769800  -0.0000000), wk =   0.0053333
        k(    5) = (   0.0000000   0.0769800   0.0324189), wk =   0.0053333
        k(    6) = (   0.0000000   0.0769800   0.0648378), wk =   0.0053333
        k(    7) = (   0.0000000   0.1539601  -0.0000000), wk =   0.0053333
        k(    8) = (   0.0000000   0.1539601   0.0324189), wk =   0.0053333
        k(    9) = (   0.0000000   0.1539601   0.0648378), wk =   0.0053333
        k(   10) = (   0.0000000   0.2309401  -0.0000000), wk =   0.0053333
        k(   11) = (   0.0000000   0.2309401   0.0324189), wk =   0.0053333
        k(   12) = (   0.0000000   0.2309401   0.0648378), wk =   0.0053333
        k(   13) = (   0.0000000   0.3079201  -0.0000000), wk =   0.0053333
        k(   14) = (   0.0000000   0.3079201   0.0324189), wk =   0.0053333
        k(   15) = (   0.0000000   0.3079201   0.0648378), wk =   0.0053333
        k(   16) = (   0.0000000   0.3849002  -0.0000000), wk =   0.0053333
        k(   17) = (   0.0000000   0.3849002   0.0324189), wk =   0.0053333
        k(   18) = (   0.0000000   0.3849002   0.0648378), wk =   0.0053333
        k(   19) = (   0.0000000   0.4618802  -0.0000000), wk =   0.0053333
        k(   20) = (   0.0000000   0.4618802   0.0324189), wk =   0.0053333
        k(   21) = (   0.0000000   0.4618802   0.0648378), wk =   0.0053333
        k(   22) = (   0.0000000   0.5388603  -0.0000000), wk =   0.0053333
        k(   23) = (   0.0000000   0.5388603   0.0324189), wk =   0.0053333
        k(   24) = (   0.0000000   0.5388603   0.0648378), wk =   0.0053333
        k(   25) = (   0.0666667   0.1154701  -0.0000000), wk =   0.0053333
        k(   26) = (   0.0666667   0.1154701   0.0324189), wk =   0.0106667
        k(   27) = (   0.0666667   0.1154701   0.0648378), wk =   0.0106667
        k(   28) = (   0.0666667   0.1924501  -0.0000000), wk =   0.0106667
        k(   29) = (   0.0666667   0.1924501   0.0324189), wk =   0.0106667
        k(   30) = (   0.0666667   0.1924501   0.0648378), wk =   0.0106667
        k(   31) = (   0.0666667   0.2694301  -0.0000000), wk =   0.0106667
        k(   32) = (   0.0666667   0.2694301   0.0324189), wk =   0.0106667
        k(   33) = (   0.0666667   0.2694301   0.0648378), wk =   0.0106667
        k(   34) = (   0.0666667   0.3464102  -0.0000000), wk =   0.0106667
        k(   35) = (   0.0666667   0.3464102   0.0324189), wk =   0.0106667
        k(   36) = (   0.0666667   0.3464102   0.0648378), wk =   0.0106667
        k(   37) = (   0.0666667   0.4233902  -0.0000000), wk =   0.0106667
        k(   38) = (   0.0666667   0.4233902   0.0324189), wk =   0.0106667
        k(   39) = (   0.0666667   0.4233902   0.0648378), wk =   0.0106667
        k(   40) = (   0.0666667   0.5003702  -0.0000000), wk =   0.0106667
        k(   41) = (   0.0666667   0.5003702   0.0324189), wk =   0.0106667
        k(   42) = (   0.0666667   0.5003702   0.0648378), wk =   0.0106667
        k(   43) = (   0.0666667   0.5773503  -0.0000000), wk =   0.0053333
        k(   44) = (   0.0666667   0.5773503   0.0324189), wk =   0.0106667
        k(   45) = (   0.0666667   0.5773503   0.0648378), wk =   0.0106667
        k(   46) = (   0.1333333   0.2309401  -0.0000000), wk =   0.0053333
        k(   47) = (   0.1333333   0.2309401   0.0324189), wk =   0.0106667
        k(   48) = (   0.1333333   0.2309401   0.0648378), wk =   0.0106667
        k(   49) = (   0.1333333   0.3079201  -0.0000000), wk =   0.0106667
        k(   50) = (   0.1333333   0.3079201   0.0324189), wk =   0.0106667
        k(   51) = (   0.1333333   0.3079201   0.0648378), wk =   0.0106667
        k(   52) = (   0.1333333   0.3849002  -0.0000000), wk =   0.0106667
        k(   53) = (   0.1333333   0.3849002   0.0324189), wk =   0.0106667
        k(   54) = (   0.1333333   0.3849002   0.0648378), wk =   0.0106667
        k(   55) = (   0.1333333   0.4618802  -0.0000000), wk =   0.0106667
        k(   56) = (   0.1333333   0.4618802   0.0324189), wk =   0.0106667
        k(   57) = (   0.1333333   0.4618802   0.0648378), wk =   0.0106667
        k(   58) = (   0.1333333   0.5388603  -0.0000000), wk =   0.0106667
        k(   59) = (   0.1333333   0.5388603   0.0324189), wk =   0.0106667
        k(   60) = (   0.1333333   0.5388603   0.0648378), wk =   0.0106667
        k(   61) = (   0.2000000   0.3464102  -0.0000000), wk =   0.0053333
        k(   62) = (   0.2000000   0.3464102   0.0324189), wk =   0.0106667
        k(   63) = (   0.2000000   0.3464102   0.0648378), wk =   0.0106667
        k(   64) = (   0.2000000   0.4233902  -0.0000000), wk =   0.0106667
        k(   65) = (   0.2000000   0.4233902   0.0324189), wk =   0.0106667
        k(   66) = (   0.2000000   0.4233902   0.0648378), wk =   0.0106667
        k(   67) = (   0.2000000   0.5003702  -0.0000000), wk =   0.0106667
        k(   68) = (   0.2000000   0.5003702   0.0324189), wk =   0.0106667
        k(   69) = (   0.2000000   0.5003702   0.0648378), wk =   0.0106667
        k(   70) = (   0.2000000   0.5773503  -0.0000000), wk =   0.0053333
        k(   71) = (   0.2000000   0.5773503   0.0324189), wk =   0.0106667
        k(   72) = (   0.2000000   0.5773503   0.0648378), wk =   0.0106667
        k(   73) = (   0.2666667   0.4618802  -0.0000000), wk =   0.0053333
        k(   74) = (   0.2666667   0.4618802   0.0324189), wk =   0.0106667
        k(   75) = (   0.2666667   0.4618802   0.0648378), wk =   0.0106667
        k(   76) = (   0.2666667   0.5388603  -0.0000000), wk =   0.0106667
        k(   77) = (   0.2666667   0.5388603   0.0324189), wk =   0.0106667
        k(   78) = (   0.2666667   0.5388603   0.0648378), wk =   0.0106667
        k(   79) = (   0.3333333   0.5773503  -0.0000000), wk =   0.0017778
        k(   80) = (   0.3333333   0.5773503   0.0324189), wk =   0.0035556
        k(   81) = (   0.3333333   0.5773503   0.0648378), wk =   0.0035556
        k(   82) = (   0.0000000  -0.0769800   0.0324189), wk =   0.0053333
        k(   83) = (   0.0000000  -0.0769800   0.0648378), wk =   0.0053333
        k(   84) = (   0.0000000  -0.1539601   0.0324189), wk =   0.0053333
        k(   85) = (   0.0000000  -0.1539601   0.0648378), wk =   0.0053333
        k(   86) = (   0.0000000  -0.2309401   0.0324189), wk =   0.0053333
        k(   87) = (   0.0000000  -0.2309401   0.0648378), wk =   0.0053333
        k(   88) = (   0.0000000  -0.3079201   0.0324189), wk =   0.0053333
        k(   89) = (   0.0000000  -0.3079201   0.0648378), wk =   0.0053333
        k(   90) = (   0.0000000  -0.3849002   0.0324189), wk =   0.0053333
        k(   91) = (   0.0000000  -0.3849002   0.0648378), wk =   0.0053333
        k(   92) = (   0.0000000  -0.4618802   0.0324189), wk =   0.0053333
        k(   93) = (   0.0000000  -0.4618802   0.0648378), wk =   0.0053333
        k(   94) = (   0.0000000  -0.5388603   0.0324189), wk =   0.0053333
        k(   95) = (   0.0000000  -0.5388603   0.0648378), wk =   0.0053333
        k(   96) = (  -0.0666667  -0.1924501   0.0324189), wk =   0.0106667
        k(   97) = (  -0.0666667  -0.1924501   0.0648378), wk =   0.0106667
        k(   98) = (  -0.0666667  -0.2694301   0.0324189), wk =   0.0106667
        k(   99) = (  -0.0666667  -0.2694301   0.0648378), wk =   0.0106667
        k(  100) = (  -0.0666667  -0.3464102   0.0324189), wk =   0.0106667
        k(  101) = (  -0.0666667  -0.3464102   0.0648378), wk =   0.0106667
        k(  102) = (  -0.0666667  -0.4233902   0.0324189), wk =   0.0106667
        k(  103) = (  -0.0666667  -0.4233902   0.0648378), wk =   0.0106667
        k(  104) = (  -0.0666667  -0.5003702   0.0324189), wk =   0.0106667
        k(  105) = (  -0.0666667  -0.5003702   0.0648378), wk =   0.0106667
        k(  106) = (  -0.1333333  -0.3079201   0.0324189), wk =   0.0106667
        k(  107) = (  -0.1333333  -0.3079201   0.0648378), wk =   0.0106667
        k(  108) = (  -0.1333333  -0.3849002   0.0324189), wk =   0.0106667
        k(  109) = (  -0.1333333  -0.3849002   0.0648378), wk =   0.0106667
        k(  110) = (  -0.1333333  -0.4618802   0.0324189), wk =   0.0106667
        k(  111) = (  -0.1333333  -0.4618802   0.0648378), wk =   0.0106667
        k(  112) = (  -0.1333333  -0.5388603   0.0324189), wk =   0.0106667
        k(  113) = (  -0.1333333  -0.5388603   0.0648378), wk =   0.0106667
        k(  114) = (  -0.2000000  -0.4233902   0.0324189), wk =   0.0106667
        k(  115) = (  -0.2000000  -0.4233902   0.0648378), wk =   0.0106667
        k(  116) = (  -0.2000000  -0.5003702   0.0324189), wk =   0.0106667
        k(  117) = (  -0.2000000  -0.5003702   0.0648378), wk =   0.0106667
        k(  118) = (  -0.2666667  -0.5388603   0.0324189), wk =   0.0106667
        k(  119) = (  -0.2666667  -0.5388603   0.0648378), wk =   0.0106667

                       cryst. coord.
        k(    1) = (   0.0000000   0.0000000   0.0000000), wk =   0.0008889
        k(    2) = (   0.0000000   0.0000000   0.2000000), wk =   0.0017778
        k(    3) = (   0.0000000   0.0000000   0.4000000), wk =   0.0017778
        k(    4) = (   0.0000000   0.0666667   0.0000000), wk =   0.0053333
        k(    5) = (   0.0000000   0.0666667   0.2000000), wk =   0.0053333
        k(    6) = (   0.0000000   0.0666667   0.4000000), wk =   0.0053333
        k(    7) = (   0.0000000   0.1333333   0.0000000), wk =   0.0053333
        k(    8) = (   0.0000000   0.1333333   0.2000000), wk =   0.0053333
        k(    9) = (   0.0000000   0.1333333   0.4000000), wk =   0.0053333
        k(   10) = (   0.0000000   0.2000000   0.0000000), wk =   0.0053333
        k(   11) = (   0.0000000   0.2000000   0.2000000), wk =   0.0053333
        k(   12) = (   0.0000000   0.2000000   0.4000000), wk =   0.0053333
        k(   13) = (   0.0000000   0.2666667   0.0000000), wk =   0.0053333
        k(   14) = (   0.0000000   0.2666667   0.2000000), wk =   0.0053333
        k(   15) = (   0.0000000   0.2666667   0.4000000), wk =   0.0053333
        k(   16) = (   0.0000000   0.3333333   0.0000000), wk =   0.0053333
        k(   17) = (   0.0000000   0.3333333   0.2000000), wk =   0.0053333
        k(   18) = (   0.0000000   0.3333333   0.4000000), wk =   0.0053333
        k(   19) = (   0.0000000   0.4000000   0.0000000), wk =   0.0053333
        k(   20) = (   0.0000000   0.4000000   0.2000000), wk =   0.0053333
        k(   21) = (   0.0000000   0.4000000   0.4000000), wk =   0.0053333
        k(   22) = (   0.0000000   0.4666667  -0.0000000), wk =   0.0053333
        k(   23) = (   0.0000000   0.4666667   0.2000000), wk =   0.0053333
        k(   24) = (   0.0000000   0.4666667   0.4000000), wk =   0.0053333
        k(   25) = (   0.0666667   0.0666667   0.0000000), wk =   0.0053333
        k(   26) = (   0.0666667   0.0666667   0.2000000), wk =   0.0106667
        k(   27) = (   0.0666667   0.0666667   0.4000000), wk =   0.0106667
        k(   28) = (   0.0666667   0.1333333   0.0000000), wk =   0.0106667
        k(   29) = (   0.0666667   0.1333333   0.2000000), wk =   0.0106667
        k(   30) = (   0.0666667   0.1333333   0.4000000), wk =   0.0106667
        k(   31) = (   0.0666667   0.2000000  -0.0000000), wk =   0.0106667
        k(   32) = (   0.0666667   0.2000000   0.2000000), wk =   0.0106667
        k(   33) = (   0.0666667   0.2000000   0.4000000), wk =   0.0106667
        k(   34) = (   0.0666667   0.2666667   0.0000000), wk =   0.0106667
        k(   35) = (   0.0666667   0.2666667   0.2000000), wk =   0.0106667
        k(   36) = (   0.0666667   0.2666667   0.4000000), wk =   0.0106667
        k(   37) = (   0.0666667   0.3333333  -0.0000000), wk =   0.0106667
        k(   38) = (   0.0666667   0.3333333   0.2000000), wk =   0.0106667
        k(   39) = (   0.0666667   0.3333333   0.4000000), wk =   0.0106667
        k(   40) = (   0.0666667   0.4000000   0.0000000), wk =   0.0106667
        k(   41) = (   0.0666667   0.4000000   0.2000000), wk =   0.0106667
        k(   42) = (   0.0666667   0.4000000   0.4000000), wk =   0.0106667
        k(   43) = (   0.0666667   0.4666667  -0.0000000), wk =   0.0053333
        k(   44) = (   0.0666667   0.4666667   0.2000000), wk =   0.0106667
        k(   45) = (   0.0666667   0.4666667   0.4000000), wk =   0.0106667
        k(   46) = (   0.1333333   0.1333333   0.0000000), wk =   0.0053333
        k(   47) = (   0.1333333   0.1333333   0.2000000), wk =   0.0106667
        k(   48) = (   0.1333333   0.1333333   0.4000000), wk =   0.0106667
        k(   49) = (   0.1333333   0.2000000   0.0000000), wk =   0.0106667
        k(   50) = (   0.1333333   0.2000000   0.2000000), wk =   0.0106667
        k(   51) = (   0.1333333   0.2000000   0.4000000), wk =   0.0106667
        k(   52) = (   0.1333333   0.2666667   0.0000000), wk =   0.0106667
        k(   53) = (   0.1333333   0.2666667   0.2000000), wk =   0.0106667
        k(   54) = (   0.1333333   0.2666667   0.4000000), wk =   0.0106667
        k(   55) = (   0.1333333   0.3333333   0.0000000), wk =   0.0106667
        k(   56) = (   0.1333333   0.3333333   0.2000000), wk =   0.0106667
        k(   57) = (   0.1333333   0.3333333   0.4000000), wk =   0.0106667
        k(   58) = (   0.1333333   0.4000000  -0.0000000), wk =   0.0106667
        k(   59) = (   0.1333333   0.4000000   0.2000000), wk =   0.0106667
        k(   60) = (   0.1333333   0.4000000   0.4000000), wk =   0.0106667
        k(   61) = (   0.2000000   0.2000000   0.0000000), wk =   0.0053333
        k(   62) = (   0.2000000   0.2000000   0.2000000), wk =   0.0106667
        k(   63) = (   0.2000000   0.2000000   0.4000000), wk =   0.0106667
        k(   64) = (   0.2000000   0.2666667   0.0000000), wk =   0.0106667
        k(   65) = (   0.2000000   0.2666667   0.2000000), wk =   0.0106667
        k(   66) = (   0.2000000   0.2666667   0.4000000), wk =   0.0106667
        k(   67) = (   0.2000000   0.3333333  -0.0000000), wk =   0.0106667
        k(   68) = (   0.2000000   0.3333333   0.2000000), wk =   0.0106667
        k(   69) = (   0.2000000   0.3333333   0.4000000), wk =   0.0106667
        k(   70) = (   0.2000000   0.4000000  -0.0000000), wk =   0.0053333
        k(   71) = (   0.2000000   0.4000000   0.2000000), wk =   0.0106667
        k(   72) = (   0.2000000   0.4000000   0.4000000), wk =   0.0106667
        k(   73) = (   0.2666667   0.2666667   0.0000000), wk =   0.0053333
        k(   74) = (   0.2666667   0.2666667   0.2000000), wk =   0.0106667
        k(   75) = (   0.2666667   0.2666667   0.4000000), wk =   0.0106667
        k(   76) = (   0.2666667   0.3333333   0.0000000), wk =   0.0106667
        k(   77) = (   0.2666667   0.3333333   0.2000000), wk =   0.0106667
        k(   78) = (   0.2666667   0.3333333   0.4000000), wk =   0.0106667
        k(   79) = (   0.3333333   0.3333333  -0.0000000), wk =   0.0017778
        k(   80) = (   0.3333333   0.3333333   0.2000000), wk =   0.0035556
        k(   81) = (   0.3333333   0.3333333   0.4000000), wk =   0.0035556
        k(   82) = (   0.0000000  -0.0666667   0.2000000), wk =   0.0053333
        k(   83) = (   0.0000000  -0.0666667   0.4000000), wk =   0.0053333
        k(   84) = (   0.0000000  -0.1333333   0.2000000), wk =   0.0053333
        k(   85) = (   0.0000000  -0.1333333   0.4000000), wk =   0.0053333
        k(   86) = (   0.0000000  -0.2000000   0.2000000), wk =   0.0053333
        k(   87) = (   0.0000000  -0.2000000   0.4000000), wk =   0.0053333
        k(   88) = (   0.0000000  -0.2666667   0.2000000), wk =   0.0053333
        k(   89) = (   0.0000000  -0.2666667   0.4000000), wk =   0.0053333
        k(   90) = (   0.0000000  -0.3333333   0.2000000), wk =   0.0053333
        k(   91) = (   0.0000000  -0.3333333   0.4000000), wk =   0.0053333
        k(   92) = (   0.0000000  -0.4000000   0.2000000), wk =   0.0053333
        k(   93) = (   0.0000000  -0.4000000   0.4000000), wk =   0.0053333
        k(   94) = (   0.0000000  -0.4666667   0.2000000), wk =   0.0053333
        k(   95) = (   0.0000000  -0.4666667   0.4000000), wk =   0.0053333
        k(   96) = (  -0.0666667  -0.1333333   0.2000000), wk =   0.0106667
        k(   97) = (  -0.0666667  -0.1333333   0.4000000), wk =   0.0106667
        k(   98) = (  -0.0666667  -0.2000000   0.2000000), wk =   0.0106667
        k(   99) = (  -0.0666667  -0.2000000   0.4000000), wk =   0.0106667
        k(  100) = (  -0.0666667  -0.2666667   0.2000000), wk =   0.0106667
        k(  101) = (  -0.0666667  -0.2666667   0.4000000), wk =   0.0106667
        k(  102) = (  -0.0666667  -0.3333333   0.2000000), wk =   0.0106667
        k(  103) = (  -0.0666667  -0.3333333   0.4000000), wk =   0.0106667
        k(  104) = (  -0.0666667  -0.4000000   0.2000000), wk =   0.0106667
        k(  105) = (  -0.0666667  -0.4000000   0.4000000), wk =   0.0106667
        k(  106) = (  -0.1333333  -0.2000000   0.2000000), wk =   0.0106667
        k(  107) = (  -0.1333333  -0.2000000   0.4000000), wk =   0.0106667
        k(  108) = (  -0.1333333  -0.2666667   0.2000000), wk =   0.0106667
        k(  109) = (  -0.1333333  -0.2666667   0.4000000), wk =   0.0106667
        k(  110) = (  -0.1333333  -0.3333333   0.2000000), wk =   0.0106667
        k(  111) = (  -0.1333333  -0.3333333   0.4000000), wk =   0.0106667
        k(  112) = (  -0.1333333  -0.4000000   0.2000000), wk =   0.0106667
        k(  113) = (  -0.1333333  -0.4000000   0.4000000), wk =   0.0106667
        k(  114) = (  -0.2000000  -0.2666667   0.2000000), wk =   0.0106667
        k(  115) = (  -0.2000000  -0.2666667   0.4000000), wk =   0.0106667
        k(  116) = (  -0.2000000  -0.3333333   0.2000000), wk =   0.0106667
        k(  117) = (  -0.2000000  -0.3333333   0.4000000), wk =   0.0106667
        k(  118) = (  -0.2666667  -0.3333333   0.2000000), wk =   0.0106667
        k(  119) = (  -0.2666667  -0.3333333   0.4000000), wk =   0.0106667

     Dense  grid:   410167 G-vectors     FFT dimensions: (  54,  54, 360)

     Estimated max dynamical RAM per process >     482.46MB

     Estimated total allocated dynamical RAM >   23157.97MB

     Initial potential from superposition of free atoms

     starting charge  113.98371, renormalised to  114.00000
     Starting wfc are  156 randomized atomic wfcs

     total cpu time spent up to now is       83.5 secs

     Self-consistent Calculation

     iteration #  1     ecut=   150.00 Ry     beta=0.70
     Davidson diagonalization with overlap
     ethr =  1.00E-02,  avg # of iterations =  2.0

     Threshold (ethr) on eigenvalues was too large:
     Diagonalizing with lowered threshold

     Davidson diagonalization with overlap
     ethr =  3.47E-04,  avg # of iterations =  2.1

     total cpu time spent up to now is      473.3 secs

     total energy              =    -908.58704415 Ry
     Harris-Foulkes estimate   =    -908.80904995 Ry
     estimated scf accuracy    <       0.37601599 Ry

     iteration #  2     ecut=   150.00 Ry     beta=0.70
     Davidson diagonalization with overlap
     ethr =  3.30E-04,  avg # of iterations =  3.0

     total cpu time spent up to now is      734.7 secs

     total energy              =    -908.64952885 Ry
     Harris-Foulkes estimate   =    -908.73428692 Ry
     estimated scf accuracy    <       0.14562698 Ry

     iteration #  3     ecut=   150.00 Ry     beta=0.70
     Davidson diagonalization with overlap
     ethr =  1.28E-04,  avg # of iterations =  3.0

     total cpu time spent up to now is      954.0 secs

     total energy              =    -908.67859208 Ry
     Harris-Foulkes estimate   =    -908.70616554 Ry
     estimated scf accuracy    <       0.05933535 Ry

     iteration #  4     ecut=   150.00 Ry     beta=0.70
     Davidson diagonalization with overlap
     ethr =  5.20E-05,  avg # of iterations =  2.8

     total cpu time spent up to now is     1156.0 secs

     total energy              =    -908.69234118 Ry
     Harris-Foulkes estimate   =    -908.69440945 Ry
     estimated scf accuracy    <       0.00531701 Ry

     iteration #  5     ecut=   150.00 Ry     beta=0.70
     Davidson diagonalization with overlap
     ethr =  4.66E-06,  avg # of iterations =  3.0

     total cpu time spent up to now is     1367.7 secs

     total energy              =    -908.69351732 Ry
     Harris-Foulkes estimate   =    -908.69353629 Ry
     estimated scf accuracy    <       0.00005265 Ry

     iteration #  6     ecut=   150.00 Ry     beta=0.70
     Davidson diagonalization with overlap
     ethr =  4.62E-08,  avg # of iterations =  4.1

     total cpu time spent up to now is     1651.5 secs

     total energy              =    -908.69354184 Ry
     Harris-Foulkes estimate   =    -908.69355701 Ry
     estimated scf accuracy    <       0.00003400 Ry

     iteration #  7     ecut=   150.00 Ry     beta=0.70
     Davidson diagonalization with overlap
     ethr =  2.98E-08,  avg # of iterations =  4.2

     total cpu time spent up to now is     1870.3 secs

     total energy              =    -908.69354689 Ry
     Harris-Foulkes estimate   =    -908.69355833 Ry
     estimated scf accuracy    <       0.00004444 Ry

     iteration #  8     ecut=   150.00 Ry     beta=0.70
     Davidson diagonalization with overlap
     ethr =  2.98E-08,  avg # of iterations =  3.8

     total cpu time spent up to now is     2070.5 secs

     total energy              =    -908.69355234 Ry
     Harris-Foulkes estimate   =    -908.69355242 Ry
     estimated scf accuracy    <       0.00000027 Ry

     iteration #  9     ecut=   150.00 Ry     beta=0.70
     Davidson diagonalization with overlap
     ethr =  2.40E-10,  avg # of iterations =  4.1

     total cpu time spent up to now is     2341.4 secs

     total energy              =    -908.69355245 Ry
     Harris-Foulkes estimate   =    -908.69355261 Ry
     estimated scf accuracy    <       0.00000045 Ry

     iteration # 10     ecut=   150.00 Ry     beta=0.70
     Davidson diagonalization with overlap
     ethr =  2.40E-10,  avg # of iterations =  3.7

     total cpu time spent up to now is     2549.4 secs

     total energy              =    -908.69355251 Ry
     Harris-Foulkes estimate   =    -908.69355254 Ry
     estimated scf accuracy    <       0.00000006 Ry

     iteration # 11     ecut=   150.00 Ry     beta=0.70
     Davidson diagonalization with overlap
     ethr =  5.55E-11,  avg # of iterations =  4.2

     total cpu time spent up to now is     2761.7 secs

     total energy              =    -908.69355252 Ry
     Harris-Foulkes estimate   =    -908.69355254 Ry
     estimated scf accuracy    <       0.00000005 Ry

     iteration # 12     ecut=   150.00 Ry     beta=0.70
     Davidson diagonalization with overlap
     ethr =  4.29E-11,  avg # of iterations =  3.9

     total cpu time spent up to now is     2965.1 secs

     total energy              =    -908.69355253 Ry
     Harris-Foulkes estimate   =    -908.69355253 Ry
     estimated scf accuracy    <          3.9E-09 Ry

     iteration # 13     ecut=   150.00 Ry     beta=0.70
     Davidson diagonalization with overlap
     ethr =  3.39E-12,  avg # of iterations =  3.9

     total cpu time spent up to now is     3176.0 secs

     End of self-consistent calculation

          k = 0.0000 0.0000 0.0000 ( 51337 PWs)   bands (ev):

    -7.6602  -7.6602  -7.6563  -7.6563  -7.6553  -7.6553  -7.4860  -7.4860
    -7.4854  -7.4854  -7.4800  -7.4800  -7.4491  -7.4491  -7.4489  -7.4489
    -7.4483  -7.4483  -7.4191  -7.4191  -7.4190  -7.4190  -7.4185  -7.4185
    -7.1399  -7.1399  -7.1393  -7.1393  -7.0878  -7.0878  -7.0764  -7.0764
    -7.0468  -7.0468  -7.0466  -7.0466  -7.0459  -7.0459  -7.0226  -7.0226
    -7.0222  -7.0222  -6.9971  -6.9971  -6.9967  -6.9967  -6.9942  -6.9942
    -6.9702  -6.9702  -6.9237  -6.9237  -6.9232  -6.9232  -6.8775  -6.8775
    -6.8420  -6.8420  -6.8412  -6.8412  -6.7798  -6.7798  -6.7796  -6.7796
    -6.7794  -6.7794  -6.2901  -6.2901  -6.2894  -6.2894  -6.1744  -6.1744
     0.2229   0.2229   0.5693   0.5693   0.5708   0.5708   3.4294   3.4294
     3.4324   3.4324   4.4907   4.4907   5.6390   5.6390   5.6398   5.6398
     5.7092   5.7092   5.7115   5.7115   5.7126   5.7126   5.7826   5.7826
     5.7966   5.7966   5.8706   5.8706   5.8745   5.8745   5.8751   5.8751
     5.9466   5.9466   5.9476   5.9476   6.2412   6.2412   7.4103   7.4103
     7.4123   7.4123

     occupation numbers 
     1.0000   1.0000   1.0000   1.0000   1.0000   1.0000   1.0000   1.0000
     1.0000   1.0000   1.0000   1.0000   1.0000   1.0000   1.0000   1.0000
     1.0000   1.0000   1.0000   1.0000   1.0000   1.0000   1.0000   1.0000
     1.0000   1.0000   1.0000   1.0000   1.0000   1.0000   1.0000   1.0000
     1.0000   1.0000   1.0000   1.0000   1.0000   1.0000   1.0000   1.0000
     1.0000   1.0000   1.0000   1.0000   1.0000   1.0000   1.0000   1.0000
     1.0000   1.0000   1.0000   1.0000   1.0000   1.0000   1.0000   1.0000
     1.0000   1.0000   1.0000   1.0000   1.0000   1.0000   1.0000   1.0000
     1.0000   1.0000   1.0000   1.0000   1.0000   1.0000   1.0000   1.0000
     1.0000   1.0000   1.0000   1.0000   1.0000   1.0000   1.0000   1.0000
     1.0000   1.0000   1.0000   1.0000   1.0000   1.0000   1.0000   1.0000
     1.0000   1.0000   1.0000   1.0000   1.0000   1.0000   1.0000   1.0000
     1.0000   1.0000   1.0000   1.0000   1.0000   1.0000   1.0000   1.0000
     1.0000   1.0000   1.0000   1.0000   1.0000   1.0000   1.0000   1.0000
     1.0000   1.0000

          k = 0.0000 0.0000 0.0324 ( 51253 PWs)   bands (ev):

    -7.6600  -7.6600  -7.6570  -7.6570  -7.6548  -7.6548  -7.4869  -7.4869
    -7.4842  -7.4842  -7.4803  -7.4803  -7.4491  -7.4491  -7.4489  -7.4489
    -7.4483  -7.4483  -7.4191  -7.4191  -7.4190  -7.4190  -7.4185  -7.4185
    -7.1438  -7.1438  -7.1332  -7.1332  -7.0992  -7.0992  -7.0641  -7.0641
    -7.0468  -7.0468  -7.0466  -7.0466  -7.0459  -7.0459  -7.0276  -7.0276
    -7.0195  -7.0195  -6.9973  -6.9973  -6.9964  -6.9964  -6.9945  -6.9945
    -6.9676  -6.9676  -6.9341  -6.9341  -6.9173  -6.9173  -6.8767  -6.8767
    -6.8572  -6.8572  -6.8249  -6.8249  -6.7798  -6.7798  -6.7796  -6.7796
    -6.7794  -6.7794  -6.3177  -6.3177  -6.2566  -6.2566  -6.1804  -6.1804
     0.2403   0.2403   0.4674   0.4674   0.6586   0.6586   3.2480   3.2480
     3.6702   3.6702   4.4073   4.4073   5.6300   5.6300   5.6528   5.6528
     5.7024   5.7024   5.7024   5.7029   5.7250   5.7259   5.7752   5.7760
     5.8044   5.8044   5.8597   5.8597   5.8776   5.8784   5.8855   5.8855
     5.9316   5.9326   5.9575   5.9580   6.3284   6.3284   7.1312   7.1312
     7.6388   7.6388

     occupation numbers 
     1.0000   1.0000   1.0000   1.0000   1.0000   1.0000   1.0000   1.0000
     1.0000   1.0000   1.0000   1.0000   1.0000   1.0000   1.0000   1.0000
     1.0000   1.0000   1.0000   1.0000   1.0000   1.0000   1.0000   1.0000
     1.0000   1.0000   1.0000   1.0000   1.0000   1.0000   1.0000   1.0000
     1.0000   1.0000   1.0000   1.0000   1.0000   1.0000   1.0000   1.0000
     1.0000   1.0000   1.0000   1.0000   1.0000   1.0000   1.0000   1.0000
     1.0000   1.0000   1.0000   1.0000   1.0000   1.0000   1.0000   1.0000
     1.0000   1.0000   1.0000   1.0000   1.0000   1.0000   1.0000   1.0000
     1.0000   1.0000   1.0000   1.0000   1.0000   1.0000   1.0000   1.0000
     1.0000   1.0000   1.0000   1.0000   1.0000   1.0000   1.0000   1.0000
     1.0000   1.0000   1.0000   1.0000   1.0000   1.0000   1.0000   1.0000
     1.0000   1.0000   1.0000   1.0000   1.0000   1.0000   1.0000   1.0000
     1.0000   1.0000   1.0000   1.0000   1.0000   1.0000   1.0000   1.0000
     1.0000   1.0000   1.0000   1.0000   1.0000   1.0000   1.0000   1.0000
     1.0000   1.0000

          k = 0.0000 0.0000 0.0648 ( 51228 PWs)   bands (ev):

    -7.6594  -7.6594  -7.6581  -7.6581  -7.6543  -7.6543  -7.4875  -7.4875
    -7.4827  -7.4827  -7.4812  -7.4812  -7.4491  -7.4491  -7.4489  -7.4489
    -7.4483  -7.4483  -7.4191  -7.4191  -7.4190  -7.4190  -7.4185  -7.4185
    -7.1458  -7.1458  -7.1243  -7.1243  -7.1129  -7.1129  -7.0486  -7.0486
    -7.0468  -7.0468  -7.0466  -7.0466  -7.0459  -7.0459  -7.0361  -7.0361
    -7.0182  -7.0182  -6.9975  -6.9975  -6.9959  -6.9959  -6.9951  -6.9951
    -6.9598  -6.9598  -6.9476  -6.9476  -6.9146  -6.9146  -6.8738  -6.8738
    -6.8679  -6.8679  -6.8141  -6.8141  -6.7798  -6.7798  -6.7796  -6.7796
    -6.7794  -6.7794  -6.3340  -6.3340  -6.2243  -6.2243  -6.1978  -6.1978
     0.2910   0.2910   0.3697   0.3697   0.7109   0.7109   3.1476   3.1476
     3.9375   3.9375   4.1995   4.1995   5.6252   5.6252   5.6692   5.6692
     5.6869   5.6869   5.6977   5.6979   5.7414   5.7425   5.7593   5.7604
     5.8217   5.8217   5.8414   5.8414   5.8911   5.8911   5.8942   5.8953
     5.9134   5.9146   5.9631   5.9633   6.5484   6.5484   6.8322   6.8322
     7.7716   7.7716

     occupation numbers 
     1.0000   1.0000   1.0000   1.0000   1.0000   1.0000   1.0000   1.0000
     1.0000   1.0000   1.0000   1.0000   1.0000   1.0000   1.0000   1.0000
     1.0000   1.0000   1.0000   1.0000   1.0000   1.0000   1.0000   1.0000
     1.0000   1.0000   1.0000   1.0000   1.0000   1.0000   1.0000   1.0000
     1.0000   1.0000   1.0000   1.0000   1.0000   1.0000   1.0000   1.0000
     1.0000   1.0000   1.0000   1.0000   1.0000   1.0000   1.0000   1.0000
     1.0000   1.0000   1.0000   1.0000   1.0000   1.0000   1.0000   1.0000
     1.0000   1.0000   1.0000   1.0000   1.0000   1.0000   1.0000   1.0000
     1.0000   1.0000   1.0000   1.0000   1.0000   1.0000   1.0000   1.0000
     1.0000   1.0000   1.0000   1.0000   1.0000   1.0000   1.0000   1.0000
     1.0000   1.0000   1.0000   1.0000   1.0000   1.0000   1.0000   1.0000
     1.0000   1.0000   1.0000   1.0000   1.0000   1.0000   1.0000   1.0000
     1.0000   1.0000   1.0000   1.0000   1.0000   1.0000   1.0000   1.0000
     1.0000   1.0000   1.0000   1.0000   1.0000   1.0000   1.0000   1.0000
     1.0000   1.0000

          k = 0.0000 0.0770-0.0000 ( 51231 PWs)   bands (ev):

    -7.6619  -7.6614  -7.6582  -7.6578  -7.6571  -7.6569  -7.4930  -7.4929
    -7.4924  -7.4924  -7.4884  -7.4880  -7.4581  -7.4576  -7.4569  -7.4564
    -7.4563  -7.4559  -7.4231  -7.4227  -7.4227  -7.4223  -7.4221  -7.4218
    -7.1712  -7.1698  -7.1682  -7.1667  -7.1491  -7.1481  -7.0614  -7.0612
    -7.0569  -7.0566  -7.0508  -7.0508  -7.0144  -7.0139  -7.0109  -7.0100
    -7.0099  -7.0092  -6.9739  -6.9731  -6.9725  -6.9716  -6.9705  -6.9696
    -6.9212  -6.9201  -6.9028  -6.9022  -6.9018  -6.9012  -6.8635  -6.8631
    -6.8017  -6.8016  -6.8009  -6.8009  -6.7755  -6.7755  -6.7637  -6.7635
    -6.7610  -6.7609  -6.2491  -6.2490  -6.2482  -6.2481  -6.1313  -6.1313
     0.2642   0.2642   0.6002   0.6002   0.6017   0.6018   3.4456   3.4456
     3.4491   3.4492   4.4048   4.4051   5.2676   5.2683   5.3304   5.3309
     5.3640   5.3641   5.4978   5.4989   5.5335   5.5343   5.5829   5.5835
     5.6026   5.6030   5.6109   5.6122   5.6610   5.6624   5.7758   5.7766
     5.8302   5.8308   5.8613   5.8615   6.4304   6.4310   7.4487   7.4488
     7.4563   7.4576

     occupation numbers 
     1.0000   1.0000   1.0000   1.0000   1.0000   1.0000   1.0000   1.0000
     1.0000   1.0000   1.0000   1.0000   1.0000   1.0000   1.0000   1.0000
     1.0000   1.0000   1.0000   1.0000   1.0000   1.0000   1.0000   1.0000
     1.0000   1.0000   1.0000   1.0000   1.0000   1.0000   1.0000   1.0000
     1.0000   1.0000   1.0000   1.0000   1.0000   1.0000   1.0000   1.0000
     1.0000   1.0000   1.0000   1.0000   1.0000   1.0000   1.0000   1.0000
     1.0000   1.0000   1.0000   1.0000   1.0000   1.0000   1.0000   1.0000
     1.0000   1.0000   1.0000   1.0000   1.0000   1.0000   1.0000   1.0000
     1.0000   1.0000   1.0000   1.0000   1.0000   1.0000   1.0000   1.0000
     1.0000   1.0000   1.0000   1.0000   1.0000   1.0000   1.0000   1.0000
     1.0000   1.0000   1.0000   1.0000   1.0000   1.0000   1.0000   1.0000
     1.0000   1.0000   1.0000   1.0000   1.0000   1.0000   1.0000   1.0000
     1.0000   1.0000   1.0000   1.0000   1.0000   1.0000   1.0000   1.0000
     1.0000   1.0000   1.0000   1.0000   1.0000   1.0000   1.0000   1.0000
     1.0000   1.0000

          k = 0.0000 0.0770 0.0324 ( 51219 PWs)   bands (ev):

    -7.6617  -7.6612  -7.6589  -7.6584  -7.6566  -7.6564  -7.4936  -7.4936
    -7.4915  -7.4915  -7.4886  -7.4883  -7.4580  -7.4575  -7.4570  -7.4566
    -7.4563  -7.4558  -7.4231  -7.4228  -7.4228  -7.4223  -7.4221  -7.4219
    -7.1723  -7.1720  -7.1671  -7.1619  -7.1508  -7.1495  -7.0628  -7.0592
    -7.0581  -7.0547  -7.0512  -7.0511  -7.0145  -7.0132  -7.0109  -7.0108
    -7.0099  -7.0088  -6.9737  -6.9731  -6.9730  -6.9709  -6.9705  -6.9701
    -6.9190  -6.9181  -6.9055  -6.9033  -6.9007  -6.9006  -6.8613  -6.8602
    -6.8195  -6.8179  -6.7920  -6.7918  -6.7755  -6.7752  -6.7709  -6.7692
    -6.7503  -6.7478  -6.2779  -6.2771  -6.2149  -6.2144  -6.1375  -6.1373
     0.2813   0.2813   0.5015   0.5015   0.6863   0.6863   3.2749   3.2749
     3.6716   3.6719   4.3333   4.3336   5.2843   5.2847   5.3345   5.3349
     5.3489   5.3491   5.5144   5.5150   5.5286   5.5296   5.5785   5.5785
     5.5814   5.5832   5.6293   5.6306   5.6448   5.6475   5.7936   5.7944
     5.8097   5.8104   5.8670   5.8670   6.5075   6.5076   7.2077   7.2079
     7.6448   7.6462

     occupation numbers 
     1.0000   1.0000   1.0000   1.0000   1.0000   1.0000   1.0000   1.0000
     1.0000   1.0000   1.0000   1.0000   1.0000   1.0000   1.0000   1.0000
     1.0000   1.0000   1.0000   1.0000   1.0000   1.0000   1.0000   1.0000
     1.0000   1.0000   1.0000   1.0000   1.0000   1.0000   1.0000   1.0000
     1.0000   1.0000   1.0000   1.0000   1.0000   1.0000   1.0000   1.0000
     1.0000   1.0000   1.0000   1.0000   1.0000   1.0000   1.0000   1.0000
     1.0000   1.0000   1.0000   1.0000   1.0000   1.0000   1.0000   1.0000
     1.0000   1.0000   1.0000   1.0000   1.0000   1.0000   1.0000   1.0000
     1.0000   1.0000   1.0000   1.0000   1.0000   1.0000   1.0000   1.0000
     1.0000   1.0000   1.0000   1.0000   1.0000   1.0000   1.0000   1.0000
     1.0000   1.0000   1.0000   1.0000   1.0000   1.0000   1.0000   1.0000
     1.0000   1.0000   1.0000   1.0000   1.0000   1.0000   1.0000   1.0000
     1.0000   1.0000   1.0000   1.0000   1.0000   1.0000   1.0000   1.0000
     1.0000   1.0000   1.0000   1.0000   1.0000   1.0000   1.0000   1.0000
     1.0000   1.0000

          k = 0.0000 0.0770 0.0648 ( 51190 PWs)   bands (ev):

    -7.6611  -7.6607  -7.6599  -7.6594  -7.6562  -7.6560  -7.4941  -7.4940
    -7.4904  -7.4904  -7.4893  -7.4890  -7.4579  -7.4573  -7.4573  -7.4569
    -7.4562  -7.4557  -7.4231  -7.4227  -7.4227  -7.4223  -7.4221  -7.4218
    -7.1742  -7.1733  -7.1621  -7.1565  -7.1556  -7.1528  -7.0625  -7.0613
    -7.0549  -7.0532  -7.0523  -7.0520  -7.0139  -7.0123  -7.0120  -7.0116
    -7.0096  -7.0087  -6.9736  -6.9731  -6.9730  -6.9716  -6.9704  -6.9701
    -6.9144  -6.9127  -6.9098  -6.9068  -6.9003  -6.8999  -6.8535  -6.8516
    -6.8389  -6.8369  -6.7889  -6.7888  -6.7750  -6.7744  -6.7738  -6.7728
    -6.7391  -6.7380  -6.2947  -6.2942  -6.1820  -6.1816  -6.1551  -6.1547
     0.3306   0.3307   0.4068   0.4068   0.7363   0.7364   3.1808   3.1809
     3.9176   3.9178   4.1514   4.1515   5.3215   5.3216   5.3317   5.3317
     5.3361   5.3364   5.5284   5.5285   5.5315   5.5324   5.5404   5.5423
     5.5790   5.5796   5.6255   5.6278   5.6490   5.6503   5.7884   5.7891
     5.8142   5.8148   5.8664   5.8666   6.7014   6.7019   6.9463   6.9468
     7.7494   7.7506

     occupation numbers 
     1.0000   1.0000   1.0000   1.0000   1.0000   1.0000   1.0000   1.0000
     1.0000   1.0000   1.0000   1.0000   1.0000   1.0000   1.0000   1.0000
     1.0000   1.0000   1.0000   1.0000   1.0000   1.0000   1.0000   1.0000
     1.0000   1.0000   1.0000   1.0000   1.0000   1.0000   1.0000   1.0000
     1.0000   1.0000   1.0000   1.0000   1.0000   1.0000   1.0000   1.0000
     1.0000   1.0000   1.0000   1.0000   1.0000   1.0000   1.0000   1.0000
     1.0000   1.0000   1.0000   1.0000   1.0000   1.0000   1.0000   1.0000
     1.0000   1.0000   1.0000   1.0000   1.0000   1.0000   1.0000   1.0000
     1.0000   1.0000   1.0000   1.0000   1.0000   1.0000   1.0000   1.0000
     1.0000   1.0000   1.0000   1.0000   1.0000   1.0000   1.0000   1.0000
     1.0000   1.0000   1.0000   1.0000   1.0000   1.0000   1.0000   1.0000
     1.0000   1.0000   1.0000   1.0000   1.0000   1.0000   1.0000   1.0000
     1.0000   1.0000   1.0000   1.0000   1.0000   1.0000   1.0000   1.0000
     1.0000   1.0000   1.0000   1.0000   1.0000   1.0000   1.0000   1.0000
     1.0000   1.0000

          k = 0.0000 0.1540-0.0000 ( 51205 PWs)   bands (ev):

    -7.6666  -7.6657  -7.6633  -7.6625  -7.6621  -7.6616  -7.5100  -7.5096
    -7.5091  -7.5091  -7.5080  -7.5079  -7.4828  -7.4823  -7.4814  -7.4812
    -7.4808  -7.4803  -7.4306  -7.4298  -7.4295  -7.4292  -7.4288  -7.4284
    -7.1952  -7.1940  -7.1919  -7.1904  -7.1776  -7.1763  -7.0707  -7.0703
    -7.0669  -7.0664  -7.0602  -7.0601  -7.0199  -7.0194  -7.0189  -7.0182
    -7.0177  -7.0171  -6.9131  -6.9129  -6.9096  -6.9094  -6.9062  -6.9060
    -6.8909  -6.8907  -6.8904  -6.8903  -6.8901  -6.8900  -6.7881  -6.7880
    -6.7822  -6.7821  -6.7818  -6.7818  -6.6837  -6.6836  -6.5955  -6.5954
    -6.5891  -6.5886  -6.1227  -6.1221  -6.1202  -6.1202  -6.0007  -6.0006
     0.3767   0.3768   0.6745   0.6746   0.6790   0.6792   3.4400   3.4405
     3.4618   3.4627   3.9983   3.9989   4.4291   4.4297   4.5604   4.5616
     4.6033   4.6035   4.7690   4.7703   4.8042   4.8051   5.2929   5.2934
     5.3478   5.3483   5.4001   5.4009   5.4342   5.4357   5.5935   5.5946
     5.6305   5.6312   5.6898   5.6899   6.5924   6.5932   7.4002   7.4009
     7.4385   7.4410

     occupation numbers 
     1.0000   1.0000   1.0000   1.0000   1.0000   1.0000   1.0000   1.0000
     1.0000   1.0000   1.0000   1.0000   1.0000   1.0000   1.0000   1.0000
     1.0000   1.0000   1.0000   1.0000   1.0000   1.0000   1.0000   1.0000
     1.0000   1.0000   1.0000   1.0000   1.0000   1.0000   1.0000   1.0000
     1.0000   1.0000   1.0000   1.0000   1.0000   1.0000   1.0000   1.0000
     1.0000   1.0000   1.0000   1.0000   1.0000   1.0000   1.0000   1.0000
     1.0000   1.0000   1.0000   1.0000   1.0000   1.0000   1.0000   1.0000
     1.0000   1.0000   1.0000   1.0000   1.0000   1.0000   1.0000   1.0000
     1.0000   1.0000   1.0000   1.0000   1.0000   1.0000   1.0000   1.0000
     1.0000   1.0000   1.0000   1.0000   1.0000   1.0000   1.0000   1.0000
     1.0000   1.0000   1.0000   1.0000   1.0000   1.0000   1.0000   1.0000
     1.0000   1.0000   1.0000   1.0000   1.0000   1.0000   1.0000   1.0000
     1.0000   1.0000   1.0000   1.0000   1.0000   1.0000   1.0000   1.0000
     1.0000   1.0000   1.0000   1.0000   1.0000   1.0000   1.0000   1.0000
     1.0000   1.0000

          k = 0.0000 0.1540 0.0324 ( 51237 PWs)   bands (ev):

    -7.6663  -7.6656  -7.6641  -7.6629  -7.6616  -7.6614  -7.5098  -7.5097
    -7.5093  -7.5089  -7.5081  -7.5078  -7.4829  -7.4822  -7.4814  -7.4811
    -7.4809  -7.4803  -7.4306  -7.4298  -7.4294  -7.4291  -7.4290  -7.4283
    -7.1962  -7.1955  -7.1917  -7.1861  -7.1786  -7.1775  -7.0717  -7.0693
    -7.0681  -7.0642  -7.0609  -7.0603  -7.0201  -7.0191  -7.0186  -7.0185
    -7.0178  -7.0169  -6.9131  -6.9124  -6.9111  -6.9078  -6.9074  -6.9055
    -6.8909  -6.8907  -6.8904  -6.8904  -6.8900  -6.8900  -6.7875  -6.7875
    -6.7831  -6.7830  -6.7814  -6.7812  -6.6809  -6.6777  -6.6241  -6.6169
    -6.5692  -6.5643  -6.1533  -6.1513  -6.0865  -6.0847  -6.0071  -6.0066
     0.3929   0.3929   0.5874   0.5876   0.7519   0.7521   3.3224   3.3227
     3.6119   3.6128   3.9633   3.9640   4.4380   4.4384   4.5418   4.5426
     4.6366   4.6371   4.7008   4.7024   4.8771   4.8781   5.2461   5.2469
     5.3466   5.3467   5.4103   5.4125   5.4237   5.4247   5.6045   5.6051
     5.6189   5.6199   5.6916   5.6917   6.6664   6.6668   7.2206   7.2218
     7.5638   7.5660

     occupation numbers 
     1.0000   1.0000   1.0000   1.0000   1.0000   1.0000   1.0000   1.0000
     1.0000   1.0000   1.0000   1.0000   1.0000   1.0000   1.0000   1.0000
     1.0000   1.0000   1.0000   1.0000   1.0000   1.0000   1.0000   1.0000
     1.0000   1.0000   1.0000   1.0000   1.0000   1.0000   1.0000   1.0000
     1.0000   1.0000   1.0000   1.0000   1.0000   1.0000   1.0000   1.0000
     1.0000   1.0000   1.0000   1.0000   1.0000   1.0000   1.0000   1.0000
     1.0000   1.0000   1.0000   1.0000   1.0000   1.0000   1.0000   1.0000
     1.0000   1.0000   1.0000   1.0000   1.0000   1.0000   1.0000   1.0000
     1.0000   1.0000   1.0000   1.0000   1.0000   1.0000   1.0000   1.0000
     1.0000   1.0000   1.0000   1.0000   1.0000   1.0000   1.0000   1.0000
     1.0000   1.0000   1.0000   1.0000   1.0000   1.0000   1.0000   1.0000
     1.0000   1.0000   1.0000   1.0000   1.0000   1.0000   1.0000   1.0000
     1.0000   1.0000   1.0000   1.0000   1.0000   1.0000   1.0000   1.0000
     1.0000   1.0000   1.0000   1.0000   1.0000   1.0000   1.0000   1.0000
     1.0000   1.0000

          k = 0.0000 0.1540 0.0648 ( 51197 PWs)   bands (ev):

    -7.6658  -7.6651  -7.6649  -7.6637  -7.6613  -7.6609  -7.5099  -7.5097
    -7.5092  -7.5089  -7.5081  -7.5078  -7.4829  -7.4822  -7.4814  -7.4812
    -7.4808  -7.4803  -7.4305  -7.4300  -7.4294  -7.4291  -7.4291  -7.4282
    -7.1977  -7.1970  -7.1876  -7.1822  -7.1817  -7.1796  -7.0718  -7.0712
    -7.0653  -7.0628  -7.0621  -7.0612  -7.0201  -7.0193  -7.0186  -7.0185
    -7.0178  -7.0169  -6.9128  -6.9123  -6.9111  -6.9092  -6.9063  -6.9056
    -6.8909  -6.8907  -6.8905  -6.8904  -6.8900  -6.8899  -6.7862  -6.7861
    -6.7845  -6.7844  -6.7810  -6.7809  -6.6694  -6.6637  -6.6499  -6.6430
    -6.5524  -6.5502  -6.1714  -6.1703  -6.0526  -6.0510  -6.0252  -6.0241
     0.4381   0.4382   0.5035   0.5037   0.7936   0.7937   3.2588   3.2588
     3.7604   3.7611   3.8709   3.8715   4.4707   4.4707   4.5155   4.5157
     4.6269   4.6275   4.6941   4.6946   4.9829   4.9841   5.1279   5.1291
     5.3516   5.3518   5.3876   5.3894   5.4463   5.4474   5.5802   5.5807
     5.6437   5.6444   5.6858   5.6861   6.8391   6.8404   7.0161   7.0177
     7.6240   7.6257

     occupation numbers 
     1.0000   1.0000   1.0000   1.0000   1.0000   1.0000   1.0000   1.0000
     1.0000   1.0000   1.0000   1.0000   1.0000   1.0000   1.0000   1.0000
     1.0000   1.0000   1.0000   1.0000   1.0000   1.0000   1.0000   1.0000
     1.0000   1.0000   1.0000   1.0000   1.0000   1.0000   1.0000   1.0000
     1.0000   1.0000   1.0000   1.0000   1.0000   1.0000   1.0000   1.0000
     1.0000   1.0000   1.0000   1.0000   1.0000   1.0000   1.0000   1.0000
     1.0000   1.0000   1.0000   1.0000   1.0000   1.0000   1.0000   1.0000
     1.0000   1.0000   1.0000   1.0000   1.0000   1.0000   1.0000   1.0000
     1.0000   1.0000   1.0000   1.0000   1.0000   1.0000   1.0000   1.0000
     1.0000   1.0000   1.0000   1.0000   1.0000   1.0000   1.0000   1.0000
     1.0000   1.0000   1.0000   1.0000   1.0000   1.0000   1.0000   1.0000
     1.0000   1.0000   1.0000   1.0000   1.0000   1.0000   1.0000   1.0000
     1.0000   1.0000   1.0000   1.0000   1.0000   1.0000   1.0000   1.0000
     1.0000   1.0000   1.0000   1.0000   1.0000   1.0000   1.0000   1.0000
     1.0000   1.0000

          k = 0.0000 0.2309-0.0000 ( 51227 PWs)   bands (ev):

    -7.6741  -7.6730  -7.6711  -7.6700  -7.6695  -7.6689  -7.5414  -7.5407
    -7.5374  -7.5363  -7.5322  -7.5318  -7.5127  -7.5115  -7.5091  -7.5084
    -7.5049  -7.5038  -7.4347  -7.4340  -7.4335  -7.4332  -7.4331  -7.4325
    -7.2003  -7.1996  -7.1979  -7.1964  -7.1870  -7.1859  -7.0731  -7.0728
    -7.0706  -7.0699  -7.0650  -7.0649  -7.0201  -7.0197  -7.0197  -7.0192
    -7.0187  -7.0183  -6.8894  -6.8892  -6.8892  -6.8890  -6.8888  -6.8887
    -6.8682  -6.8679  -6.8658  -6.8655  -6.8643  -6.8640  -6.7699  -6.7698
    -6.7688  -6.7687  -6.7686  -6.7685  -6.4127  -6.4126  -6.3205  -6.3197
    -6.3140  -6.3127  -5.9089  -5.9074  -5.9052  -5.9041  -5.7857  -5.7856
     0.5140   0.5141   0.7234   0.7238   0.7408   0.7413   3.1430   3.1444
     3.2254   3.2255   3.2370   3.2388   3.5538   3.5539   3.6913   3.6920
     3.7294   3.7295   4.3186   4.3187   4.3381   4.3391   5.0506   5.0510
     5.1199   5.1207   5.1365   5.1377   5.2246   5.2290   5.3491   5.3512
     5.3724   5.3730   5.4530   5.4530   6.6566   6.6576   7.1777   7.1790
     7.2655   7.2689

     occupation numbers 
     1.0000   1.0000   1.0000   1.0000   1.0000   1.0000   1.0000   1.0000
     1.0000   1.0000   1.0000   1.0000   1.0000   1.0000   1.0000   1.0000
     1.0000   1.0000   1.0000   1.0000   1.0000   1.0000   1.0000   1.0000
     1.0000   1.0000   1.0000   1.0000   1.0000   1.0000   1.0000   1.0000
     1.0000   1.0000   1.0000   1.0000   1.0000   1.0000   1.0000   1.0000
     1.0000   1.0000   1.0000   1.0000   1.0000   1.0000   1.0000   1.0000
     1.0000   1.0000   1.0000   1.0000   1.0000   1.0000   1.0000   1.0000
     1.0000   1.0000   1.0000   1.0000   1.0000   1.0000   1.0000   1.0000
     1.0000   1.0000   1.0000   1.0000   1.0000   1.0000   1.0000   1.0000
     1.0000   1.0000   1.0000   1.0000   1.0000   1.0000   1.0000   1.0000
     1.0000   1.0000   1.0000   1.0000   1.0000   1.0000   1.0000   1.0000
     1.0000   1.0000   1.0000   1.0000   1.0000   1.0000   1.0000   1.0000
     1.0000   1.0000   1.0000   1.0000   1.0000   1.0000   1.0000   1.0000
     1.0000   1.0000   1.0000   1.0000   1.0000   1.0000   1.0000   1.0000
     1.0000   1.0000

          k = 0.0000 0.2309 0.0324 ( 51212 PWs)   bands (ev):

    -7.6737  -7.6730  -7.6720  -7.6700  -7.6690  -7.6689  -7.5412  -7.5403
    -7.5393  -7.5342  -7.5336  -7.5311  -7.5140  -7.5104  -7.5094  -7.5073
    -7.5056  -7.5036  -7.4347  -7.4340  -7.4335  -7.4333  -7.4332  -7.4324
    -7.2014  -7.2007  -7.1975  -7.1930  -7.1875  -7.1870  -7.0738  -7.0724
    -7.0712  -7.0681  -7.0657  -7.0650  -7.0202  -7.0197  -7.0196  -7.0193
    -7.0187  -7.0183  -6.8894  -6.8892  -6.8892  -6.8890  -6.8888  -6.8887
    -6.8680  -6.8678  -6.8667  -6.8649  -6.8645  -6.8638  -6.7698  -6.7698
    -6.7690  -6.7690  -6.7685  -6.7684  -6.4093  -6.4066  -6.3505  -6.3436
    -6.2917  -6.2863  -5.9408  -5.9376  -5.8710  -5.8679  -5.7923  -5.7914
     0.5289   0.5290   0.6620   0.6625   0.7878   0.7883   3.1527   3.1537
     3.2097   3.2103   3.2385   3.2403   3.5603   3.5605   3.6491   3.6497
     3.7968   3.7970   4.1410   4.1421   4.5316   4.5323   5.0515   5.0516
     5.1053   5.1093   5.1471   5.1481   5.1669   5.1726   5.3423   5.3429
     5.3785   5.3798   5.4521   5.4523   6.7272   6.7279   7.0635   7.0657
     7.3252   7.3281

     occupation numbers 
     1.0000   1.0000   1.0000   1.0000   1.0000   1.0000   1.0000   1.0000
     1.0000   1.0000   1.0000   1.0000   1.0000   1.0000   1.0000   1.0000
     1.0000   1.0000   1.0000   1.0000   1.0000   1.0000   1.0000   1.0000
     1.0000   1.0000   1.0000   1.0000   1.0000   1.0000   1.0000   1.0000
     1.0000   1.0000   1.0000   1.0000   1.0000   1.0000   1.0000   1.0000
     1.0000   1.0000   1.0000   1.0000   1.0000   1.0000   1.0000   1.0000
     1.0000   1.0000   1.0000   1.0000   1.0000   1.0000   1.0000   1.0000
     1.0000   1.0000   1.0000   1.0000   1.0000   1.0000   1.0000   1.0000
     1.0000   1.0000   1.0000   1.0000   1.0000   1.0000   1.0000   1.0000
     1.0000   1.0000   1.0000   1.0000   1.0000   1.0000   1.0000   1.0000
     1.0000   1.0000   1.0000   1.0000   1.0000   1.0000   1.0000   1.0000
     1.0000   1.0000   1.0000   1.0000   1.0000   1.0000   1.0000   1.0000
     1.0000   1.0000   1.0000   1.0000   1.0000   1.0000   1.0000   1.0000
     1.0000   1.0000   1.0000   1.0000   1.0000   1.0000   1.0000   1.0000
     1.0000   1.0000

          k = 0.0000 0.2309 0.0648 ( 51242 PWs)   bands (ev):

    -7.6733  -7.6726  -7.6725  -7.6709  -7.6689  -7.6684  -7.5410  -7.5409
    -7.5385  -7.5361  -7.5317  -7.5313  -7.5141  -7.5123  -7.5074  -7.5071
    -7.5058  -7.5040  -7.4347  -7.4341  -7.4335  -7.4332  -7.4331  -7.4324
    -7.2024  -7.2020  -7.1942  -7.1903  -7.1896  -7.1885  -7.0739  -7.0738
    -7.0691  -7.0672  -7.0665  -7.0657  -7.0203  -7.0198  -7.0194  -7.0191
    -7.0188  -7.0183  -6.8894  -6.8892  -6.8892  -6.8890  -6.8888  -6.8887
    -6.8678  -6.8675  -6.8670  -6.8658  -6.8638  -6.8638  -6.7696  -6.7696
    -6.7692  -6.7692  -6.7684  -6.7683  -6.3968  -6.3919  -6.3771  -6.3708
    -6.2732  -6.2709  -5.9597  -5.9581  -5.8370  -5.8343  -5.8105  -5.8086
     0.5654   0.5657   0.6022   0.6027   0.8118   0.8120   3.1760   3.1764
     3.1879   3.1888   3.2370   3.2385   3.5842   3.5842   3.6152   3.6155
     3.8717   3.8730   3.9835   3.9857   4.7611   4.7627   4.9959   4.9994
     5.0594   5.0596   5.0916   5.0957   5.1707   5.1718   5.3171   5.3174
     5.4063   5.4070   5.4426   5.4429   6.8660   6.8681   6.9300   6.9326
     7.3423   7.3443

     occupation numbers 
     1.0000   1.0000   1.0000   1.0000   1.0000   1.0000   1.0000   1.0000
     1.0000   1.0000   1.0000   1.0000   1.0000   1.0000   1.0000   1.0000
     1.0000   1.0000   1.0000   1.0000   1.0000   1.0000   1.0000   1.0000
     1.0000   1.0000   1.0000   1.0000   1.0000   1.0000   1.0000   1.0000
     1.0000   1.0000   1.0000   1.0000   1.0000   1.0000   1.0000   1.0000
     1.0000   1.0000   1.0000   1.0000   1.0000   1.0000   1.0000   1.0000
     1.0000   1.0000   1.0000   1.0000   1.0000   1.0000   1.0000   1.0000
     1.0000   1.0000   1.0000   1.0000   1.0000   1.0000   1.0000   1.0000
     1.0000   1.0000   1.0000   1.0000   1.0000   1.0000   1.0000   1.0000
     1.0000   1.0000   1.0000   1.0000   1.0000   1.0000   1.0000   1.0000
     1.0000   1.0000   1.0000   1.0000   1.0000   1.0000   1.0000   1.0000
     1.0000   1.0000   1.0000   1.0000   1.0000   1.0000   1.0000   1.0000
     1.0000   1.0000   1.0000   1.0000   1.0000   1.0000   1.0000   1.0000
     1.0000   1.0000   1.0000   1.0000   1.0000   1.0000   1.0000   1.0000
     1.0000   1.0000

          k = 0.0000 0.3079-0.0000 ( 51247 PWs)   bands (ev):

    -7.6838  -7.6827  -7.6809  -7.6793  -7.6785  -7.6780  -7.5764  -7.5757
    -7.5757  -7.5742  -7.5707  -7.5693  -7.5246  -7.5241  -7.5214  -7.5213
    -7.5190  -7.5179  -7.4371  -7.4365  -7.4361  -7.4358  -7.4358  -7.4352
    -7.1999  -7.1998  -7.1985  -7.1972  -7.1909  -7.1902  -7.0689  -7.0688
    -7.0677  -7.0671  -7.0634  -7.0634  -7.0181  -7.0177  -7.0177  -7.0174
    -7.0169  -7.0166  -6.8860  -6.8860  -6.8858  -6.8858  -6.8855  -6.8855
    -6.8476  -6.8476  -6.8462  -6.8460  -6.8454  -6.8453  -6.7493  -6.7491
    -6.7488  -6.7487  -6.7485  -6.7485  -6.0690  -6.0689  -5.9804  -5.9770
    -5.9742  -5.9706  -5.6235  -5.6194  -5.6188  -5.6150  -5.5041  -5.5040
     0.5469   0.5471   0.6028   0.6034   0.6467   0.6476   2.3538   2.3546
     2.3899   2.3911   2.5105   2.5107   2.8792   2.8796   3.1549   3.1561
     3.1675   3.1682   4.3353   4.3357   4.3632   4.3649   4.7515   4.7522
     4.8319   4.8330   4.8437   4.8439   5.0918   5.0923   5.1079   5.1085
     5.2035   5.2036   5.2706   5.2712   6.5892   6.5907   6.7769   6.7785
     6.9283   6.9324

     occupation numbers 
     1.0000   1.0000   1.0000   1.0000   1.0000   1.0000   1.0000   1.0000
     1.0000   1.0000   1.0000   1.0000   1.0000   1.0000   1.0000   1.0000
     1.0000   1.0000   1.0000   1.0000   1.0000   1.0000   1.0000   1.0000
     1.0000   1.0000   1.0000   1.0000   1.0000   1.0000   1.0000   1.0000
     1.0000   1.0000   1.0000   1.0000   1.0000   1.0000   1.0000   1.0000
     1.0000   1.0000   1.0000   1.0000   1.0000   1.0000   1.0000   1.0000
     1.0000   1.0000   1.0000   1.0000   1.0000   1.0000   1.0000   1.0000
     1.0000   1.0000   1.0000   1.0000   1.0000   1.0000   1.0000   1.0000
     1.0000   1.0000   1.0000   1.0000   1.0000   1.0000   1.0000   1.0000
     1.0000   1.0000   1.0000   1.0000   1.0000   1.0000   1.0000   1.0000
     1.0000   1.0000   1.0000   1.0000   1.0000   1.0000   1.0000   1.0000
     1.0000   1.0000   1.0000   1.0000   1.0000   1.0000   1.0000   1.0000
     1.0000   1.0000   1.0000   1.0000   1.0000   1.0000   1.0000   1.0000
     1.0000   1.0000   1.0000   1.0000   1.0000   1.0000   1.0000   1.0000
     1.0000   1.0000

          k = 0.0000 0.3079 0.0324 ( 51264 PWs)   bands (ev):

    -7.6832  -7.6827  -7.6819  -7.6791  -7.6781  -7.6781  -7.5771  -7.5765
    -7.5748  -7.5726  -7.5709  -7.5702  -7.5249  -7.5231  -7.5226  -7.5203
    -7.5196  -7.5177  -7.4371  -7.4365  -7.4361  -7.4358  -7.4358  -7.4352
    -7.2010  -7.2005  -7.1978  -7.1948  -7.1913  -7.1911  -7.0695  -7.0690
    -7.0675  -7.0658  -7.0640  -7.0635  -7.0181  -7.0178  -7.0177  -7.0174
    -7.0169  -7.0166  -6.8860  -6.8860  -6.8858  -6.8858  -6.8855  -6.8855
    -6.8476  -6.8474  -6.8467  -6.8459  -6.8455  -6.8451  -6.7493  -6.7491
    -6.7488  -6.7488  -6.7485  -6.7484  -6.0652  -6.0630  -6.0098  -6.0036
    -5.9490  -5.9440  -5.6548  -5.6510  -5.5839  -5.5800  -5.5109  -5.5099
     0.5614   0.5615   0.5801   0.5809   0.6549   0.6556   2.3340   2.3343
     2.4292   2.4304   2.4917   2.4923   2.8934   2.8940   3.0476   3.0486
     3.2830   3.2833   4.1404   4.1417   4.5817   4.5835   4.7536   4.7538
     4.8146   4.8148   4.8612   4.8628   5.0755   5.0761   5.1236   5.1248
     5.2008   5.2010   5.2112   5.2121   6.6580   6.6587   6.7227   6.7255
     6.9266   6.9300

     occupation numbers 
     1.0000   1.0000   1.0000   1.0000   1.0000   1.0000   1.0000   1.0000
     1.0000   1.0000   1.0000   1.0000   1.0000   1.0000   1.0000   1.0000
     1.0000   1.0000   1.0000   1.0000   1.0000   1.0000   1.0000   1.0000
     1.0000   1.0000   1.0000   1.0000   1.0000   1.0000   1.0000   1.0000
     1.0000   1.0000   1.0000   1.0000   1.0000   1.0000   1.0000   1.0000
     1.0000   1.0000   1.0000   1.0000   1.0000   1.0000   1.0000   1.0000
     1.0000   1.0000   1.0000   1.0000   1.0000   1.0000   1.0000   1.0000
     1.0000   1.0000   1.0000   1.0000   1.0000   1.0000   1.0000   1.0000
     1.0000   1.0000   1.0000   1.0000   1.0000   1.0000   1.0000   1.0000
     1.0000   1.0000   1.0000   1.0000   1.0000   1.0000   1.0000   1.0000
     1.0000   1.0000   1.0000   1.0000   1.0000   1.0000   1.0000   1.0000
     1.0000   1.0000   1.0000   1.0000   1.0000   1.0000   1.0000   1.0000
     1.0000   1.0000   1.0000   1.0000   1.0000   1.0000   1.0000   1.0000
     1.0000   1.0000   1.0000   1.0000   1.0000   1.0000   1.0000   1.0000
     1.0000   1.0000

          k = 0.0000 0.3079 0.0648 ( 51292 PWs)   bands (ev):

    -7.6832  -7.6823  -7.6819  -7.6802  -7.6781  -7.6775  -7.5776  -7.5768
    -7.5735  -7.5717  -7.5716  -7.5709  -7.5246  -7.5241  -7.5213  -7.5211
    -7.5191  -7.5180  -7.4371  -7.4366  -7.4361  -7.4358  -7.4357  -7.4352
    -7.2016  -7.2013  -7.1956  -7.1933  -7.1925  -7.1921  -7.0698  -7.0697
    -7.0661  -7.0651  -7.0645  -7.0641  -7.0181  -7.0178  -7.0176  -7.0173
    -7.0169  -7.0167  -6.8860  -6.8860  -6.8858  -6.8858  -6.8855  -6.8855
    -6.8474  -6.8472  -6.8469  -6.8464  -6.8451  -6.8451  -6.7492  -6.7491
    -6.7489  -6.7488  -6.7485  -6.7484  -6.0528  -6.0487  -6.0355  -6.0301
    -5.9305  -5.9284  -5.6731  -5.6713  -5.5516  -5.5483  -5.5285  -5.5263
     0.5603   0.5611   0.5827   0.5831   0.6533   0.6537   2.3271   2.3273
     2.4597   2.4607   2.4672   2.4682   2.9290   2.9297   2.9677   2.9683
     3.3815   3.3822   3.9789   3.9803   4.7635   4.7637   4.7881   4.7889
     4.8219   4.8277   4.8880   4.8926   5.0508   5.0511   5.0552   5.0568
     5.1563   5.1577   5.1886   5.1890   6.6643   6.6680   6.7529   6.7554
     6.9042   6.9067

     occupation numbers 
     1.0000   1.0000   1.0000   1.0000   1.0000   1.0000   1.0000   1.0000
     1.0000   1.0000   1.0000   1.0000   1.0000   1.0000   1.0000   1.0000
     1.0000   1.0000   1.0000   1.0000   1.0000   1.0000   1.0000   1.0000
     1.0000   1.0000   1.0000   1.0000   1.0000   1.0000   1.0000   1.0000
     1.0000   1.0000   1.0000   1.0000   1.0000   1.0000   1.0000   1.0000
     1.0000   1.0000   1.0000   1.0000   1.0000   1.0000   1.0000   1.0000
     1.0000   1.0000   1.0000   1.0000   1.0000   1.0000   1.0000   1.0000
     1.0000   1.0000   1.0000   1.0000   1.0000   1.0000   1.0000   1.0000
     1.0000   1.0000   1.0000   1.0000   1.0000   1.0000   1.0000   1.0000
     1.0000   1.0000   1.0000   1.0000   1.0000   1.0000   1.0000   1.0000
     1.0000   1.0000   1.0000   1.0000   1.0000   1.0000   1.0000   1.0000
     1.0000   1.0000   1.0000   1.0000   1.0000   1.0000   1.0000   1.0000
     1.0000   1.0000   1.0000   1.0000   1.0000   1.0000   1.0000   1.0000
     1.0000   1.0000   1.0000   1.0000   1.0000   1.0000   1.0000   1.0000
     1.0000   1.0000

          k = 0.0000 0.3849-0.0000 ( 51307 PWs)   bands (ev):

    -7.6940  -7.6934  -7.6913  -7.6891  -7.6880  -7.6880  -7.6086  -7.6069
    -7.6055  -7.6052  -7.6039  -7.6020  -7.5301  -7.5298  -7.5279  -7.5275
    -7.5267  -7.5256  -7.4391  -7.4386  -7.4383  -7.4381  -7.4379  -7.4375
    -7.1998  -7.1995  -7.1988  -7.1975  -7.1938  -7.1934  -7.0621  -7.0620
    -7.0615  -7.0610  -7.0585  -7.0585  -7.0151  -7.0149  -7.0147  -7.0146
    -7.0141  -7.0139  -6.8829  -6.8829  -6.8827  -6.8827  -6.8824  -6.8823
    -6.8393  -6.8392  -6.8385  -6.8384  -6.8379  -6.8378  -6.7288  -6.7287
    -6.7284  -6.7284  -6.7283  -6.7282  -5.6878  -5.6876  -5.6094  -5.6038
    -5.5996  -5.5941  -5.3038  -5.2992  -5.2924  -5.2880  -5.1936  -5.1936
     0.2206   0.2210   0.2855   0.2859   0.2875   0.2882   1.5515   1.5525
     1.5712   1.5720   1.6882   1.6885   2.6702   2.6706   3.0630   3.0638
     3.0756   3.0769   4.4860   4.4898   4.5376   4.5431   4.5519   4.5537
     4.5884   4.5890   4.5897   4.5942   4.8692   4.8694   4.8785   4.8792
     4.9840   4.9841   5.3169   5.3185   6.2501   6.2520   6.3376   6.3398
     6.4696   6.4742

     occupation numbers 
     1.0000   1.0000   1.0000   1.0000   1.0000   1.0000   1.0000   1.0000
     1.0000   1.0000   1.0000   1.0000   1.0000   1.0000   1.0000   1.0000
     1.0000   1.0000   1.0000   1.0000   1.0000   1.0000   1.0000   1.0000
     1.0000   1.0000   1.0000   1.0000   1.0000   1.0000   1.0000   1.0000
     1.0000   1.0000   1.0000   1.0000   1.0000   1.0000   1.0000   1.0000
     1.0000   1.0000   1.0000   1.0000   1.0000   1.0000   1.0000   1.0000
     1.0000   1.0000   1.0000   1.0000   1.0000   1.0000   1.0000   1.0000
     1.0000   1.0000   1.0000   1.0000   1.0000   1.0000   1.0000   1.0000
     1.0000   1.0000   1.0000   1.0000   1.0000   1.0000   1.0000   1.0000
     1.0000   1.0000   1.0000   1.0000   1.0000   1.0000   1.0000   1.0000
     1.0000   1.0000   1.0000   1.0000   1.0000   1.0000   1.0000   1.0000
     1.0000   1.0000   1.0000   1.0000   1.0000   1.0000   1.0000   1.0000
     1.0000   1.0000   1.0000   1.0000   1.0000   1.0000   1.0000   1.0000
     1.0000   1.0000   1.0000   1.0000   1.0000   1.0000   1.0000   1.0000
     1.0000   1.0000

          k = 0.0000 0.3849 0.0324 ( 51289 PWs)   bands (ev):

    -7.6933  -7.6932  -7.6924  -7.6893  -7.6878  -7.6877  -7.6085  -7.6066
    -7.6058  -7.6051  -7.6040  -7.6020  -7.5300  -7.5292  -7.5287  -7.5277
    -7.5266  -7.5254  -7.4391  -7.4386  -7.4383  -7.4381  -7.4379  -7.4375
    -7.2004  -7.2002  -7.1979  -7.1960  -7.1942  -7.1940  -7.0626  -7.0625
    -7.0608  -7.0602  -7.0589  -7.0587  -7.0151  -7.0149  -7.0148  -7.0145
    -7.0141  -7.0139  -6.8829  -6.8829  -6.8827  -6.8827  -6.8824  -6.8823
    -6.8393  -6.8390  -6.8387  -6.8383  -6.8380  -6.8377  -6.7288  -6.7287
    -6.7285  -6.7284  -6.7283  -6.7282  -5.6833  -5.6813  -5.6363  -5.6309
    -5.5740  -5.5696  -5.3316  -5.3277  -5.2609  -5.2567  -5.2009  -5.1997
     0.2232   0.2239   0.2691   0.2698   0.3015   0.3016   1.5265   1.5273
     1.6063   1.6072   1.6782   1.6783   2.6875   2.6882   2.9420   2.9432
     3.1950   3.1953   4.3548   4.3577   4.4996   4.5005   4.5591   4.5593
     4.6084   4.6098   4.7708   4.7713   4.8454   4.8465   4.9038   4.9039
     4.9800   4.9803   5.2620   5.2621   6.2365   6.2401   6.4066   6.4069
     6.4225   6.4264

     occupation numbers 
     1.0000   1.0000   1.0000   1.0000   1.0000   1.0000   1.0000   1.0000
     1.0000   1.0000   1.0000   1.0000   1.0000   1.0000   1.0000   1.0000
     1.0000   1.0000   1.0000   1.0000   1.0000   1.0000   1.0000   1.0000
     1.0000   1.0000   1.0000   1.0000   1.0000   1.0000   1.0000   1.0000
     1.0000   1.0000   1.0000   1.0000   1.0000   1.0000   1.0000   1.0000
     1.0000   1.0000   1.0000   1.0000   1.0000   1.0000   1.0000   1.0000
     1.0000   1.0000   1.0000   1.0000   1.0000   1.0000   1.0000   1.0000
     1.0000   1.0000   1.0000   1.0000   1.0000   1.0000   1.0000   1.0000
     1.0000   1.0000   1.0000   1.0000   1.0000   1.0000   1.0000   1.0000
     1.0000   1.0000   1.0000   1.0000   1.0000   1.0000   1.0000   1.0000
     1.0000   1.0000   1.0000   1.0000   1.0000   1.0000   1.0000   1.0000
     1.0000   1.0000   1.0000   1.0000   1.0000   1.0000   1.0000   1.0000
     1.0000   1.0000   1.0000   1.0000   1.0000   1.0000   1.0000   1.0000
     1.0000   1.0000   1.0000   1.0000   1.0000   1.0000   1.0000   1.0000
     1.0000   1.0000

          k = 0.0000 0.3849 0.0648 ( 51290 PWs)   bands (ev):

    -7.6938  -7.6927  -7.6917  -7.6907  -7.6879  -7.6870  -7.6081  -7.6073
    -7.6062  -7.6046  -7.6034  -7.6025  -7.5297  -7.5296  -7.5284  -7.5281
    -7.5262  -7.5256  -7.4390  -7.4387  -7.4384  -7.4381  -7.4379  -7.4375
    -7.2008  -7.2005  -7.1965  -7.1956  -7.1948  -7.1945  -7.0628  -7.0627
    -7.0600  -7.0597  -7.0592  -7.0592  -7.0151  -7.0149  -7.0147  -7.0145
    -7.0141  -7.0139  -6.8829  -6.8829  -6.8827  -6.8827  -6.8824  -6.8823
    -6.8392  -6.8391  -6.8386  -6.8385  -6.8378  -6.8377  -6.7288  -6.7287
    -6.7285  -6.7284  -6.7283  -6.7282  -5.6711  -5.6675  -5.6594  -5.6548
    -5.5579  -5.5564  -5.3465  -5.3450  -5.2326  -5.2292  -5.2176  -5.2151
     0.2327   0.2334   0.2509   0.2514   0.3104   0.3107   1.5157   1.5161
     1.6401   1.6411   1.6551   1.6556   2.7388   2.7398   2.8271   2.8280
     3.2906   3.2910   4.2333   4.2352   4.5100   4.5101   4.5326   4.5327
     4.6324   4.6329   4.8200   4.8202   4.9351   4.9352   4.9659   4.9664
     4.9839   4.9860   5.1344   5.1353   6.2359   6.2407   6.3685   6.3714
     6.4653   6.4677

     occupation numbers 
     1.0000   1.0000   1.0000   1.0000   1.0000   1.0000   1.0000   1.0000
     1.0000   1.0000   1.0000   1.0000   1.0000   1.0000   1.0000   1.0000
     1.0000   1.0000   1.0000   1.0000   1.0000   1.0000   1.0000   1.0000
     1.0000   1.0000   1.0000   1.0000   1.0000   1.0000   1.0000   1.0000
     1.0000   1.0000   1.0000   1.0000   1.0000   1.0000   1.0000   1.0000
     1.0000   1.0000   1.0000   1.0000   1.0000   1.0000   1.0000   1.0000
     1.0000   1.0000   1.0000   1.0000   1.0000   1.0000   1.0000   1.0000
     1.0000   1.0000   1.0000   1.0000   1.0000   1.0000   1.0000   1.0000
     1.0000   1.0000   1.0000   1.0000   1.0000   1.0000   1.0000   1.0000
     1.0000   1.0000   1.0000   1.0000   1.0000   1.0000   1.0000   1.0000
     1.0000   1.0000   1.0000   1.0000   1.0000   1.0000   1.0000   1.0000
     1.0000   1.0000   1.0000   1.0000   1.0000   1.0000   1.0000   1.0000
     1.0000   1.0000   1.0000   1.0000   1.0000   1.0000   1.0000   1.0000
     1.0000   1.0000   1.0000   1.0000   1.0000   1.0000   1.0000   1.0000
     1.0000   1.0000

          k = 0.0000 0.4619-0.0000 ( 51317 PWs)   bands (ev):

    -7.7024  -7.7023  -7.7006  -7.6978  -7.6971  -7.6964  -7.6299  -7.6290
    -7.6271  -7.6266  -7.6250  -7.6241  -7.5327  -7.5325  -7.5313  -7.5312
    -7.5301  -7.5296  -7.4407  -7.4403  -7.4402  -7.4400  -7.4396  -7.4394
    -7.2002  -7.1999  -7.1991  -7.1981  -7.1961  -7.1961  -7.0560  -7.0560
    -7.0552  -7.0550  -7.0536  -7.0535  -7.0123  -7.0122  -7.0120  -7.0119
    -7.0114  -7.0113  -6.8800  -6.8799  -6.8798  -6.8797  -6.8794  -6.8794
    -6.8360  -6.8358  -6.8355  -6.8353  -6.8350  -6.8349  -6.7136  -6.7135
    -6.7133  -6.7133  -6.7132  -6.7131  -5.3269  -5.3263  -5.2694  -5.2644
    -5.2463  -5.2417  -5.0121  -5.0079  -4.9863  -4.9821  -4.9165  -4.9162
    -0.2486  -0.2485  -0.1802  -0.1797  -0.1715  -0.1710   0.9131   0.9135
     0.9288   0.9298   1.0221   1.0226   2.8827   2.8830   3.2595   3.2602
     3.2708   3.2712   4.3081   4.3086   4.4001   4.4001   4.4048   4.4052
     4.7062   4.7066   4.7070   4.7091   4.7107   4.7111   4.7950   4.7970
     4.8235   4.8241   5.2934   5.2950   5.7331   5.7357   5.9487   5.9510
     6.0048   6.0094

     occupation numbers 
     1.0000   1.0000   1.0000   1.0000   1.0000   1.0000   1.0000   1.0000
     1.0000   1.0000   1.0000   1.0000   1.0000   1.0000   1.0000   1.0000
     1.0000   1.0000   1.0000   1.0000   1.0000   1.0000   1.0000   1.0000
     1.0000   1.0000   1.0000   1.0000   1.0000   1.0000   1.0000   1.0000
     1.0000   1.0000   1.0000   1.0000   1.0000   1.0000   1.0000   1.0000
     1.0000   1.0000   1.0000   1.0000   1.0000   1.0000   1.0000   1.0000
     1.0000   1.0000   1.0000   1.0000   1.0000   1.0000   1.0000   1.0000
     1.0000   1.0000   1.0000   1.0000   1.0000   1.0000   1.0000   1.0000
     1.0000   1.0000   1.0000   1.0000   1.0000   1.0000   1.0000   1.0000
     1.0000   1.0000   1.0000   1.0000   1.0000   1.0000   1.0000   1.0000
     1.0000   1.0000   1.0000   1.0000   1.0000   1.0000   1.0000   1.0000
     1.0000   1.0000   1.0000   1.0000   1.0000   1.0000   1.0000   1.0000
     1.0000   1.0000   1.0000   1.0000   1.0000   1.0000   1.0000   1.0000
     1.0000   1.0000   1.0000   1.0000   1.0000   1.0000   1.0000   1.0000
     1.0000   1.0000

          k = 0.0000 0.4619 0.0324 ( 51302 PWs)   bands (ev):

    -7.7021  -7.7020  -7.7010  -7.6990  -7.6964  -7.6962  -7.6293  -7.6283
    -7.6282  -7.6276  -7.6245  -7.6239  -7.5324  -7.5322  -7.5317  -7.5316
    -7.5300  -7.5294  -7.4407  -7.4403  -7.4402  -7.4400  -7.4396  -7.4394
    -7.2005  -7.2004  -7.1983  -7.1973  -7.1966  -7.1964  -7.0563  -7.0563
    -7.0547  -7.0545  -7.0538  -7.0538  -7.0123  -7.0122  -7.0120  -7.0119
    -7.0114  -7.0113  -6.8800  -6.8799  -6.8798  -6.8797  -6.8794  -6.8794
    -6.8360  -6.8358  -6.8355  -6.8353  -6.8350  -6.8349  -6.7136  -6.7135
    -6.7133  -6.7133  -6.7132  -6.7131  -5.3210  -5.3188  -5.2911  -5.2865
    -5.2270  -5.2239  -5.0316  -5.0287  -4.9615  -4.9577  -4.9251  -4.9235
    -0.2429  -0.2426  -0.2010  -0.2005  -0.1561  -0.1559   0.9038   0.9048
     0.9397   0.9404   1.0203   1.0205   2.9008   2.9014   3.1432   3.1439
     3.3812   3.3812   4.3113   4.3119   4.3743   4.3746   4.4303   4.4303
     4.5831   4.5856   4.6771   4.6776   4.7422   4.7425   4.8184   4.8190
     4.9484   4.9518   5.2485   5.2487   5.7454   5.7501   5.9360   5.9403
     6.0066   6.0068

     occupation numbers 
     1.0000   1.0000   1.0000   1.0000   1.0000   1.0000   1.0000   1.0000
     1.0000   1.0000   1.0000   1.0000   1.0000   1.0000   1.0000   1.0000
     1.0000   1.0000   1.0000   1.0000   1.0000   1.0000   1.0000   1.0000
     1.0000   1.0000   1.0000   1.0000   1.0000   1.0000   1.0000   1.0000
     1.0000   1.0000   1.0000   1.0000   1.0000   1.0000   1.0000   1.0000
     1.0000   1.0000   1.0000   1.0000   1.0000   1.0000   1.0000   1.0000
     1.0000   1.0000   1.0000   1.0000   1.0000   1.0000   1.0000   1.0000
     1.0000   1.0000   1.0000   1.0000   1.0000   1.0000   1.0000   1.0000
     1.0000   1.0000   1.0000   1.0000   1.0000   1.0000   1.0000   1.0000
     1.0000   1.0000   1.0000   1.0000   1.0000   1.0000   1.0000   1.0000
     1.0000   1.0000   1.0000   1.0000   1.0000   1.0000   1.0000   1.0000
     1.0000   1.0000   1.0000   1.0000   1.0000   1.0000   1.0000   1.0000
     1.0000   1.0000   1.0000   1.0000   1.0000   1.0000   1.0000   1.0000
     1.0000   1.0000   1.0000   1.0000   1.0000   1.0000   1.0000   1.0000
     1.0000   1.0000

          k = 0.0000 0.4619 0.0648 ( 51291 PWs)   bands (ev):

    -7.7028  -7.7013  -7.7003  -7.6997  -7.6969  -7.6957  -7.6294  -7.6286
    -7.6281  -7.6270  -7.6245  -7.6241  -7.5325  -7.5323  -7.5317  -7.5312
    -7.5299  -7.5296  -7.4406  -7.4403  -7.4402  -7.4400  -7.4396  -7.4394
    -7.2007  -7.2004  -7.1977  -7.1976  -7.1969  -7.1963  -7.0564  -7.0563
    -7.0545  -7.0545  -7.0539  -7.0539  -7.0123  -7.0122  -7.0120  -7.0119
    -7.0114  -7.0114  -6.8800  -6.8799  -6.8798  -6.8797  -6.8794  -6.8794
    -6.8359  -6.8359  -6.8355  -6.8354  -6.8350  -6.8350  -6.7136  -6.7135
    -6.7134  -6.7133  -6.7132  -6.7131  -5.3089  -5.3087  -5.3052  -5.3051
    -5.2180  -5.2178  -5.0382  -5.0379  -4.9408  -4.9403  -4.9380  -4.9372
    -0.2302  -0.2298  -0.2210  -0.2206  -0.1486  -0.1485   0.8878   0.8885
     0.9682   0.9691   1.0076   1.0078   2.9546   2.9554   3.0376   3.0382
     3.4477   3.4481   4.3228   4.3233   4.3475   4.3476   4.4517   4.4518
     4.5206   4.5229   4.6537   4.6540   4.7745   4.7748   4.8030   4.8038
     5.0897   5.0942   5.1490   5.1503   5.7820   5.7881   5.8611   5.8643
     6.0501   6.0521

     occupation numbers 
     1.0000   1.0000   1.0000   1.0000   1.0000   1.0000   1.0000   1.0000
     1.0000   1.0000   1.0000   1.0000   1.0000   1.0000   1.0000   1.0000
     1.0000   1.0000   1.0000   1.0000   1.0000   1.0000   1.0000   1.0000
     1.0000   1.0000   1.0000   1.0000   1.0000   1.0000   1.0000   1.0000
     1.0000   1.0000   1.0000   1.0000   1.0000   1.0000   1.0000   1.0000
     1.0000   1.0000   1.0000   1.0000   1.0000   1.0000   1.0000   1.0000
     1.0000   1.0000   1.0000   1.0000   1.0000   1.0000   1.0000   1.0000
     1.0000   1.0000   1.0000   1.0000   1.0000   1.0000   1.0000   1.0000
     1.0000   1.0000   1.0000   1.0000   1.0000   1.0000   1.0000   1.0000
     1.0000   1.0000   1.0000   1.0000   1.0000   1.0000   1.0000   1.0000
     1.0000   1.0000   1.0000   1.0000   1.0000   1.0000   1.0000   1.0000
     1.0000   1.0000   1.0000   1.0000   1.0000   1.0000   1.0000   1.0000
     1.0000   1.0000   1.0000   1.0000   1.0000   1.0000   1.0000   1.0000
     1.0000   1.0000   1.0000   1.0000   1.0000   1.0000   1.0000   1.0000
     1.0000   1.0000

          k = 0.0000 0.5389-0.0000 ( 51278 PWs)   bands (ev):

    -7.7074  -7.7068  -7.7060  -7.7044  -7.7020  -7.7017  -7.6396  -7.6396
    -7.6388  -7.6380  -7.6351  -7.6350  -7.5335  -7.5335  -7.5329  -7.5328
    -7.5314  -7.5312  -7.4415  -7.4414  -7.4412  -7.4411  -7.4405  -7.4405
    -7.2007  -7.2005  -7.1990  -7.1985  -7.1978  -7.1976  -7.0526  -7.0526
    -7.0514  -7.0514  -7.0508  -7.0507  -7.0106  -7.0106  -7.0104  -7.0104
    -7.0098  -7.0098  -6.8781  -6.8780  -6.8779  -6.8778  -6.8775  -6.8775
    -6.8347  -6.8346  -6.8343  -6.8342  -6.8340  -6.8339  -6.7057  -6.7057
    -6.7055  -6.7055  -6.7053  -6.7053  -5.0833  -5.0815  -5.0613  -5.0578
    -5.0150  -5.0128  -4.8325  -4.8304  -4.7831  -4.7801  -4.7573  -4.7559
[...]
     5.6848   5.6943

     occupation numbers 
     1.0000   1.0000   1.0000   1.0000   1.0000   1.0000   1.0000   1.0000
     1.0000   1.0000   1.0000   1.0000   1.0000   1.0000   1.0000   1.0000
     1.0000   1.0000   1.0000   1.0000   1.0000   1.0000   1.0000   1.0000
     1.0000   1.0000   1.0000   1.0000   1.0000   1.0000   1.0000   1.0000
     1.0000   1.0000   1.0000   1.0000   1.0000   1.0000   1.0000   1.0000
     1.0000   1.0000   1.0000   1.0000   1.0000   1.0000   1.0000   1.0000
     1.0000   1.0000   1.0000   1.0000   1.0000   1.0000   1.0000   1.0000
     1.0000   1.0000   1.0000   1.0000   1.0000   1.0000   1.0000   1.0000
     1.0000   1.0000   1.0000   1.0000   1.0000   1.0000   1.0000   1.0000
     1.0000   1.0000   1.0000   1.0000   1.0000   1.0000   1.0000   1.0000
     1.0000   1.0000   1.0000   1.0000   1.0000   1.0000   1.0000   1.0000
     1.0000   1.0000   1.0000   1.0000   1.0000   1.0000   1.0000   1.0000
     1.0000   1.0000   1.0000   1.0000   1.0000   1.0000   1.0000   1.0000
     1.0000   1.0000   1.0000   1.0000   1.0000   1.0000   1.0000   1.0000
     1.0000   1.0000

          k =-0.1333-0.5389 0.0648 ( 51297 PWs)   bands (ev):

    -7.7183  -7.7149  -7.7141  -7.6898  -7.6864  -7.6857  -7.6462  -7.6456
    -7.6423  -7.6395  -7.6392  -7.6381  -7.5676  -7.5674  -7.5663  -7.4802
    -7.4798  -7.4789  -7.4583  -7.4579  -7.4570  -7.4146  -7.4143  -7.4137
    -7.2639  -7.2633  -7.2610  -7.1632  -7.1626  -7.1612  -7.0926  -7.0915
    -7.0909  -7.0672  -7.0668  -7.0662  -7.0058  -7.0055  -7.0049  -6.9630
    -6.9628  -6.9623  -6.8768  -6.8766  -6.8763  -6.8760  -6.8758  -6.8755
    -6.8516  -6.8513  -6.8507  -6.8309  -6.8307  -6.8304  -6.7063  -6.7061
    -6.7060  -6.7030  -6.7027  -6.7026  -5.0022  -4.9829  -4.9620  -4.9463
    -4.9432  -4.9276  -4.7423  -4.7343  -4.7260  -4.7179  -4.6816  -4.6742
    -0.4664  -0.4640  -0.4605  -0.4579  -0.4284  -0.4223   0.6286   0.6383
     0.6741   0.6838   0.7044   0.7145   3.0791   3.0933   3.1276   3.1345
     3.1434   3.1470   3.7639   3.7696   3.8471   3.8500   3.8957   3.9028
     3.9124   3.9246   3.9824   3.9874   4.0603   4.0701   4.9625   4.9710
     5.0658   5.0762   5.1792   5.1883   5.4961   5.5036   5.6717   5.6771
     5.6832   5.6933

     occupation numbers 
     1.0000   1.0000   1.0000   1.0000   1.0000   1.0000   1.0000   1.0000
     1.0000   1.0000   1.0000   1.0000   1.0000   1.0000   1.0000   1.0000
     1.0000   1.0000   1.0000   1.0000   1.0000   1.0000   1.0000   1.0000
     1.0000   1.0000   1.0000   1.0000   1.0000   1.0000   1.0000   1.0000
     1.0000   1.0000   1.0000   1.0000   1.0000   1.0000   1.0000   1.0000
     1.0000   1.0000   1.0000   1.0000   1.0000   1.0000   1.0000   1.0000
     1.0000   1.0000   1.0000   1.0000   1.0000   1.0000   1.0000   1.0000
     1.0000   1.0000   1.0000   1.0000   1.0000   1.0000   1.0000   1.0000
     1.0000   1.0000   1.0000   1.0000   1.0000   1.0000   1.0000   1.0000
     1.0000   1.0000   1.0000   1.0000   1.0000   1.0000   1.0000   1.0000
     1.0000   1.0000   1.0000   1.0000   1.0000   1.0000   1.0000   1.0000
     1.0000   1.0000   1.0000   1.0000   1.0000   1.0000   1.0000   1.0000
     1.0000   1.0000   1.0000   1.0000   1.0000   1.0000   1.0000   1.0000
     1.0000   1.0000   1.0000   1.0000   1.0000   1.0000   1.0000   1.0000
     1.0000   1.0000

          k =-0.2000-0.4234 0.0324 ( 51253 PWs)   bands (ev):

    -7.7145  -7.7111  -7.7093  -7.6795  -7.6767  -7.6754  -7.6341  -7.6326
    -7.6298  -7.6288  -7.6286  -7.6277  -7.5738  -7.5732  -7.5721  -7.4751
    -7.4749  -7.4741  -7.4429  -7.4422  -7.4407  -7.4055  -7.4052  -7.4047
    -7.2892  -7.2875  -7.2841  -7.1567  -7.1557  -7.1539  -7.1149  -7.1129
    -7.1117  -7.0718  -7.0712  -7.0707  -6.9996  -6.9992  -6.9986  -6.9541
    -6.9539  -6.9534  -6.8786  -6.8784  -6.8780  -6.8776  -6.8773  -6.8770
    -6.8590  -6.8585  -6.8577  -6.8331  -6.8329  -6.8326  -6.7156  -6.7154
    -6.7152  -6.7112  -6.7110  -6.7109  -5.2656  -5.2393  -5.2156  -5.1904
    -5.1766  -5.1518  -4.9599  -4.9491  -4.9173  -4.9065  -4.8603  -4.8505
    -0.0434  -0.0385   0.0002   0.0050   0.0164   0.0211   1.1816   1.1850
     1.1927   1.1954   1.2444   1.2547   3.0274   3.0344   3.0392   3.0454
     3.0563   3.0775   3.2878   3.2972   3.4892   3.4942   3.6048   3.6178
     3.6602   3.6677   3.7152   3.7268   3.7755   3.7788   4.7548   4.7628
     5.0534   5.0641   5.4322   5.4456   5.9299   5.9363   6.0665   6.0734
     6.1151   6.1269

     occupation numbers 
     1.0000   1.0000   1.0000   1.0000   1.0000   1.0000   1.0000   1.0000
     1.0000   1.0000   1.0000   1.0000   1.0000   1.0000   1.0000   1.0000
     1.0000   1.0000   1.0000   1.0000   1.0000   1.0000   1.0000   1.0000
     1.0000   1.0000   1.0000   1.0000   1.0000   1.0000   1.0000   1.0000
     1.0000   1.0000   1.0000   1.0000   1.0000   1.0000   1.0000   1.0000
     1.0000   1.0000   1.0000   1.0000   1.0000   1.0000   1.0000   1.0000
     1.0000   1.0000   1.0000   1.0000   1.0000   1.0000   1.0000   1.0000
     1.0000   1.0000   1.0000   1.0000   1.0000   1.0000   1.0000   1.0000
     1.0000   1.0000   1.0000   1.0000   1.0000   1.0000   1.0000   1.0000
     1.0000   1.0000   1.0000   1.0000   1.0000   1.0000   1.0000   1.0000
     1.0000   1.0000   1.0000   1.0000   1.0000   1.0000   1.0000   1.0000
     1.0000   1.0000   1.0000   1.0000   1.0000   1.0000   1.0000   1.0000
     1.0000   1.0000   1.0000   1.0000   1.0000   1.0000   1.0000   1.0000
     1.0000   1.0000   1.0000   1.0000   1.0000   1.0000   1.0000   1.0000
     1.0000   1.0000

          k =-0.2000-0.4234 0.0648 ( 51253 PWs)   bands (ev):

    -7.7140  -7.7123  -7.7087  -7.6790  -7.6776  -7.6749  -7.6345  -7.6318
    -7.6305  -7.6289  -7.6283  -7.6276  -7.5737  -7.5732  -7.5720  -7.4751
    -7.4749  -7.4741  -7.4431  -7.4418  -7.4409  -7.4055  -7.4052  -7.4047
    -7.2898  -7.2863  -7.2847  -7.1569  -7.1551  -7.1542  -7.1145  -7.1136
    -7.1114  -7.0717  -7.0713  -7.0706  -6.9997  -6.9991  -6.9986  -6.9541
    -6.9539  -6.9534  -6.8786  -6.8784  -6.8780  -6.8776  -6.8773  -6.8770
    -6.8592  -6.8583  -6.8578  -6.8331  -6.8329  -6.8326  -6.7156  -6.7154
    -6.7152  -6.7112  -6.7110  -6.7109  -5.2565  -5.2365  -5.2304  -5.2109
    -5.1610  -5.1362  -4.9765  -4.9662  -4.8938  -4.8833  -4.8709  -4.8608
    -0.0439  -0.0390   0.0030   0.0078   0.0141   0.0188   1.1711   1.1817
     1.1984   1.2093   1.2415   1.2517   3.0276   3.0424   3.0430   3.0605
     3.0642   3.0700   3.3076   3.3148   3.3889   3.3912   3.6134   3.6268
     3.6881   3.6943   3.7005   3.7053   3.8628   3.8727   4.6275   4.6343
     5.2110   5.2225   5.3641   5.3771   5.9335   5.9399   6.0695   6.0807
     6.1071   6.1147

     occupation numbers 
     1.0000   1.0000   1.0000   1.0000   1.0000   1.0000   1.0000   1.0000
     1.0000   1.0000   1.0000   1.0000   1.0000   1.0000   1.0000   1.0000
     1.0000   1.0000   1.0000   1.0000   1.0000   1.0000   1.0000   1.0000
     1.0000   1.0000   1.0000   1.0000   1.0000   1.0000   1.0000   1.0000
     1.0000   1.0000   1.0000   1.0000   1.0000   1.0000   1.0000   1.0000
     1.0000   1.0000   1.0000   1.0000   1.0000   1.0000   1.0000   1.0000
     1.0000   1.0000   1.0000   1.0000   1.0000   1.0000   1.0000   1.0000
     1.0000   1.0000   1.0000   1.0000   1.0000   1.0000   1.0000   1.0000
     1.0000   1.0000   1.0000   1.0000   1.0000   1.0000   1.0000   1.0000
     1.0000   1.0000   1.0000   1.0000   1.0000   1.0000   1.0000   1.0000
     1.0000   1.0000   1.0000   1.0000   1.0000   1.0000   1.0000   1.0000
     1.0000   1.0000   1.0000   1.0000   1.0000   1.0000   1.0000   1.0000
     1.0000   1.0000   1.0000   1.0000   1.0000   1.0000   1.0000   1.0000
     1.0000   1.0000   1.0000   1.0000   1.0000   1.0000   1.0000   1.0000
     1.0000   1.0000

          k =-0.2000-0.5004 0.0324 ( 51270 PWs)   bands (ev):

    -7.7189  -7.7157  -7.7151  -7.6822  -7.6793  -7.6786  -7.6470  -7.6465
    -7.6434  -7.6401  -7.6397  -7.6386  -7.5760  -7.5756  -7.5745  -7.4737
    -7.4736  -7.4727  -7.4403  -7.4398  -7.4385  -7.4028  -7.4026  -7.4021
    -7.2968  -7.2962  -7.2937  -7.1557  -7.1552  -7.1539  -7.1164  -7.1150
    -7.1144  -7.0732  -7.0728  -7.0723  -6.9951  -6.9948  -6.9942  -6.9475
    -6.9473  -6.9468  -6.8761  -6.8759  -6.8756  -6.8751  -6.8749  -6.8746
    -6.8603  -6.8600  -6.8593  -6.8330  -6.8328  -6.8326  -6.7076  -6.7074
    -6.7073  -6.7033  -6.7030  -6.7029  -4.9899  -4.9651  -4.9437  -4.9323
    -4.9197  -4.9084  -4.7245  -4.7144  -4.7127  -4.7026  -4.6622  -4.6528
    -0.3322  -0.3239  -0.2968  -0.2900  -0.2887  -0.2817   0.8121   0.8261
     0.8493   0.8641   0.8717   0.8858   2.7144   2.7318   2.7562   2.7743
     2.7936   2.8097   3.3239   3.3337   3.3988   3.4077   3.4429   3.4512
     3.6279   3.6376   3.9108   3.9183   4.0331   4.0447   5.0259   5.0362
     5.0934   5.1053   5.3572   5.3681   5.5058   5.5162   5.7066   5.7148
     5.7801   5.7915

     occupation numbers 
     1.0000   1.0000   1.0000   1.0000   1.0000   1.0000   1.0000   1.0000
     1.0000   1.0000   1.0000   1.0000   1.0000   1.0000   1.0000   1.0000
     1.0000   1.0000   1.0000   1.0000   1.0000   1.0000   1.0000   1.0000
     1.0000   1.0000   1.0000   1.0000   1.0000   1.0000   1.0000   1.0000
     1.0000   1.0000   1.0000   1.0000   1.0000   1.0000   1.0000   1.0000
     1.0000   1.0000   1.0000   1.0000   1.0000   1.0000   1.0000   1.0000
     1.0000   1.0000   1.0000   1.0000   1.0000   1.0000   1.0000   1.0000
     1.0000   1.0000   1.0000   1.0000   1.0000   1.0000   1.0000   1.0000
     1.0000   1.0000   1.0000   1.0000   1.0000   1.0000   1.0000   1.0000
     1.0000   1.0000   1.0000   1.0000   1.0000   1.0000   1.0000   1.0000
     1.0000   1.0000   1.0000   1.0000   1.0000   1.0000   1.0000   1.0000
     1.0000   1.0000   1.0000   1.0000   1.0000   1.0000   1.0000   1.0000
     1.0000   1.0000   1.0000   1.0000   1.0000   1.0000   1.0000   1.0000
     1.0000   1.0000   1.0000   1.0000   1.0000   1.0000   1.0000   1.0000
     1.0000   1.0000

          k =-0.2000-0.5004 0.0648 ( 51265 PWs)   bands (ev):

    -7.7187  -7.7164  -7.7146  -7.6820  -7.6798  -7.6782  -7.6475  -7.6458
    -7.6436  -7.6401  -7.6396  -7.6386  -7.5760  -7.5756  -7.5745  -7.4737
    -7.4736  -7.4727  -7.4404  -7.4396  -7.4386  -7.4028  -7.4026  -7.4021
    -7.2972  -7.2957  -7.2939  -7.1558  -7.1550  -7.1540  -7.1162  -7.1153
    -7.1142  -7.0732  -7.0729  -7.0723  -6.9951  -6.9948  -6.9943  -6.9475
    -6.9473  -6.9468  -6.8761  -6.8759  -6.8756  -6.8751  -6.8749  -6.8746
    -6.8604  -6.8599  -6.8594  -6.8330  -6.8328  -6.8326  -6.7076  -6.7074
    -6.7073  -6.7033  -6.7030  -6.7029  -4.9856  -4.9609  -4.9596  -4.9354
    -4.9192  -4.8953  -4.7384  -4.7285  -4.6956  -4.6856  -4.6669  -4.6574
    -0.3287  -0.3204  -0.3075  -0.2994  -0.2828  -0.2746   0.8093   0.8235
     0.8610   0.8627   0.8750   0.8775   2.7246   2.7375   2.7415   2.7556
     2.8038   2.8206   3.3126   3.3221   3.4232   3.4258   3.4312   3.4348
     3.6685   3.6777   3.8003   3.8078   4.1281   4.1402   4.9145   4.9235
     5.2125   5.2249   5.3168   5.3275   5.5201   5.5306   5.7402   5.7432
     5.7486   5.7547

     occupation numbers 
     1.0000   1.0000   1.0000   1.0000   1.0000   1.0000   1.0000   1.0000
     1.0000   1.0000   1.0000   1.0000   1.0000   1.0000   1.0000   1.0000
     1.0000   1.0000   1.0000   1.0000   1.0000   1.0000   1.0000   1.0000
     1.0000   1.0000   1.0000   1.0000   1.0000   1.0000   1.0000   1.0000
     1.0000   1.0000   1.0000   1.0000   1.0000   1.0000   1.0000   1.0000
     1.0000   1.0000   1.0000   1.0000   1.0000   1.0000   1.0000   1.0000
     1.0000   1.0000   1.0000   1.0000   1.0000   1.0000   1.0000   1.0000
     1.0000   1.0000   1.0000   1.0000   1.0000   1.0000   1.0000   1.0000
     1.0000   1.0000   1.0000   1.0000   1.0000   1.0000   1.0000   1.0000
     1.0000   1.0000   1.0000   1.0000   1.0000   1.0000   1.0000   1.0000
     1.0000   1.0000   1.0000   1.0000   1.0000   1.0000   1.0000   1.0000
     1.0000   1.0000   1.0000   1.0000   1.0000   1.0000   1.0000   1.0000
     1.0000   1.0000   1.0000   1.0000   1.0000   1.0000   1.0000   1.0000
     1.0000   1.0000   1.0000   1.0000   1.0000   1.0000   1.0000   1.0000
     1.0000   1.0000

          k =-0.2667-0.5389 0.0324 ( 51279 PWs)   bands (ev):

    -7.7201  -7.7184  -7.7177  -7.6789  -7.6774  -7.6766  -7.6536  -7.6531
    -7.6514  -7.6461  -7.6458  -7.6448  -7.5808  -7.5806  -7.5794  -7.4760
    -7.4759  -7.4750  -7.4118  -7.4115  -7.4108  -7.3941  -7.3939  -7.3933
    -7.3291  -7.3286  -7.3271  -7.1518  -7.1514  -7.1505  -7.1316  -7.1309
    -7.1303  -7.0772  -7.0769  -7.0764  -6.9858  -6.9856  -6.9851  -6.9358
    -6.9356  -6.9351  -6.8742  -6.8740  -6.8737  -6.8735  -6.8733  -6.8730
    -6.8665  -6.8663  -6.8658  -6.8352  -6.8350  -6.8348  -6.7043  -6.7041
    -6.7040  -6.6998  -6.6995  -6.6994  -4.8064  -4.7804  -4.7777  -4.7762
    -4.7521  -4.7507  -4.5770  -4.5757  -4.5668  -4.5655  -4.5453  -4.5354
    -0.3742  -0.3619  -0.3618  -0.3603  -0.3496  -0.3480   0.7815   0.8014
     0.8018   0.8019   0.8220   0.8228   2.2942   2.3090   2.3106   2.3255
     2.3441   2.3604   2.8828   2.8882   2.9305   2.9358   2.9498   2.9552
     3.9910   4.0036   4.2393   4.2533   4.2697   4.2862   5.1042   5.1118
     5.1376   5.1467   5.2550   5.2619   5.3595   5.3735   5.4661   5.4760
     5.5961   5.6058

     occupation numbers 
     1.0000   1.0000   1.0000   1.0000   1.0000   1.0000   1.0000   1.0000
     1.0000   1.0000   1.0000   1.0000   1.0000   1.0000   1.0000   1.0000
     1.0000   1.0000   1.0000   1.0000   1.0000   1.0000   1.0000   1.0000
     1.0000   1.0000   1.0000   1.0000   1.0000   1.0000   1.0000   1.0000
     1.0000   1.0000   1.0000   1.0000   1.0000   1.0000   1.0000   1.0000
     1.0000   1.0000   1.0000   1.0000   1.0000   1.0000   1.0000   1.0000
     1.0000   1.0000   1.0000   1.0000   1.0000   1.0000   1.0000   1.0000
     1.0000   1.0000   1.0000   1.0000   1.0000   1.0000   1.0000   1.0000
     1.0000   1.0000   1.0000   1.0000   1.0000   1.0000   1.0000   1.0000
     1.0000   1.0000   1.0000   1.0000   1.0000   1.0000   1.0000   1.0000
     1.0000   1.0000   1.0000   1.0000   1.0000   1.0000   1.0000   1.0000
     1.0000   1.0000   1.0000   1.0000   1.0000   1.0000   1.0000   1.0000
     1.0000   1.0000   1.0000   1.0000   1.0000   1.0000   1.0000   1.0000
     1.0000   1.0000   1.0000   1.0000   1.0000   1.0000   1.0000   1.0000
     1.0000   1.0000

          k =-0.2667-0.5389 0.0648 ( 51269 PWs)   bands (ev):

    -7.7200  -7.7186  -7.7176  -7.6789  -7.6775  -7.6765  -7.6538  -7.6529
    -7.6514  -7.6461  -7.6458  -7.6448  -7.5808  -7.5806  -7.5794  -7.4760
    -7.4759  -7.4750  -7.4119  -7.4115  -7.4108  -7.3941  -7.3939  -7.3933
    -7.3292  -7.3284  -7.3272  -7.1518  -7.1513  -7.1505  -7.1316  -7.1310
    -7.1302  -7.0772  -7.0769  -7.0764  -6.9858  -6.9856  -6.9851  -6.9358
    -6.9356  -6.9351  -6.8742  -6.8740  -6.8737  -6.8735  -6.8733  -6.8730
    -6.8666  -6.8663  -6.8658  -6.8352  -6.8350  -6.8348  -6.7043  -6.7041
    -6.7040  -6.6998  -6.6995  -6.6994  -4.8046  -4.7862  -4.7787  -4.7692
    -4.7606  -4.7437  -4.5844  -4.5742  -4.5667  -4.5565  -4.5471  -4.5372
    -0.3734  -0.3648  -0.3610  -0.3582  -0.3526  -0.3459   0.7827   0.7964
     0.8032   0.8056   0.8167   0.8267   2.2987   2.3037   2.3153   2.3200
     2.3452   2.3615   2.8808   2.8861   2.9369   2.9422   2.9446   2.9500
     4.0163   4.0291   4.1511   4.1641   4.3392   4.3567   5.0782   5.0877
     5.1863   5.1958   5.2171   5.2242   5.3434   5.3598   5.4865   5.4980
     5.5980   5.6080

     occupation numbers 
     1.0000   1.0000   1.0000   1.0000   1.0000   1.0000   1.0000   1.0000
     1.0000   1.0000   1.0000   1.0000   1.0000   1.0000   1.0000   1.0000
     1.0000   1.0000   1.0000   1.0000   1.0000   1.0000   1.0000   1.0000
     1.0000   1.0000   1.0000   1.0000   1.0000   1.0000   1.0000   1.0000
     1.0000   1.0000   1.0000   1.0000   1.0000   1.0000   1.0000   1.0000
     1.0000   1.0000   1.0000   1.0000   1.0000   1.0000   1.0000   1.0000
     1.0000   1.0000   1.0000   1.0000   1.0000   1.0000   1.0000   1.0000
     1.0000   1.0000   1.0000   1.0000   1.0000   1.0000   1.0000   1.0000
     1.0000   1.0000   1.0000   1.0000   1.0000   1.0000   1.0000   1.0000
     1.0000   1.0000   1.0000   1.0000   1.0000   1.0000   1.0000   1.0000
     1.0000   1.0000   1.0000   1.0000   1.0000   1.0000   1.0000   1.0000
     1.0000   1.0000   1.0000   1.0000   1.0000   1.0000   1.0000   1.0000
     1.0000   1.0000   1.0000   1.0000   1.0000   1.0000   1.0000   1.0000
     1.0000   1.0000   1.0000   1.0000   1.0000   1.0000   1.0000   1.0000
     1.0000   1.0000

     highest occupied level (ev):     7.7716

!    total energy              =    -908.69355253 Ry
     Harris-Foulkes estimate   =    -908.69355253 Ry
     estimated scf accuracy    <          3.2E-10 Ry

     The total energy is the sum of the following terms:

     one-electron contribution =    -597.47985365 Ry
     hartree contribution      =     373.15827732 Ry
     xc contribution           =    -133.47938222 Ry
     ewald contribution        =    -550.89259398 Ry

     convergence has been achieved in  13 iterations

     Writing output data file GaSgamma.save
 
     init_run     :     79.38s CPU     83.31s WALL (       1 calls)
     electrons    :   2950.98s CPU   3092.69s WALL (       1 calls)

     Called by init_run:
     wfcinit      :     78.81s CPU     82.46s WALL (       1 calls)
     wfcinit:atom :      0.26s CPU      0.43s WALL (     119 calls)
     wfcinit:wfcr :     77.05s CPU     80.27s WALL (     119 calls)
     potinit      :      0.12s CPU      0.12s WALL (       1 calls)

     Called by electrons:
     c_bands      :   2630.32s CPU   2762.13s WALL (      14 calls)
     sum_band     :    320.16s CPU    329.90s WALL (      14 calls)
     v_of_rho     :      0.25s CPU      0.27s WALL (      14 calls)
     v_h          :      0.02s CPU      0.02s WALL (      14 calls)
     v_xc         :      0.23s CPU      0.25s WALL (      14 calls)
     mix_rho      :      0.17s CPU      0.23s WALL (      14 calls)

     Called by c_bands:
     init_us_2    :      5.81s CPU      6.41s WALL (    3451 calls)
     cegterg      :   2506.90s CPU   2637.31s WALL (    1666 calls)

     Called by sum_band:

     Called by *egterg:
     h_psi        :   1928.06s CPU   1991.48s WALL (    7465 calls)
     g_psi        :      6.95s CPU      6.96s WALL (    5680 calls)
     cdiaghg      :    273.79s CPU    307.62s WALL (    7227 calls)
     cegterg:over :    145.80s CPU    152.30s WALL (    5680 calls)
     cegterg:upda :    122.11s CPU    134.72s WALL (    5680 calls)
     cegterg:last :     54.55s CPU     57.14s WALL (    1666 calls)
     cdiaghg:chol :     12.53s CPU     12.52s WALL (    7227 calls)
     cdiaghg:inve :     10.72s CPU     10.75s WALL (    7227 calls)
     cdiaghg:para :     58.12s CPU     87.62s WALL (   14454 calls)

     Called by h_psi:
     h_psi:pot    :   1918.93s CPU   1982.28s WALL (    7465 calls)
     h_psi:calbec :    123.46s CPU    129.71s WALL (    7465 calls)
     vloc_psi     :   1668.24s CPU   1720.08s WALL (    7465 calls)
     add_vuspsi   :    127.18s CPU    132.45s WALL (    7465 calls)

     General routines
     calbec       :    123.46s CPU    129.70s WALL (    7465 calls)
     fft          :      0.31s CPU      0.33s WALL (     239 calls)
     fftw         :   1899.74s CPU   1959.78s WALL ( 2456520 calls)
     davcio       :      0.00s CPU      0.33s WALL (     119 calls)
 
     Parallel routines
     fft_scatter  :   1085.88s CPU   1100.68s WALL ( 2456759 calls)
 
     PWSCF        : 50m31.64s CPU    53m44.78s WALL

 
   This run was terminated on:   0: 8:10   7Apr2022            

=------------------------------------------------------------------------------=
   JOB DONE.
=------------------------------------------------------------------------------=
