
     Program PWSCF v.6.1 (svn rev. 13369) starts on  7Apr2022 at 10:48: 1 

     This program is part of the open-source Quantum ESPRESSO suite
     for quantum simulation of materials; please cite
         "P. Giannozzi et al., J. Phys.:Condens. Matter 21 395502 (2009);
          URL http://www.quantum-espresso.org", 
     in publications or presentations arising from this work. More details at
     http://www.quantum-espresso.org/quote

     Parallel version (MPI), running on    48 processors
     R & G space division:  proc/nbgrp/npool/nimage =      48
     Reading input from GaSgamma_band.in
Warning: card &IONS ignored
Warning: card / ignored
Warning: card &CELL ignored
Warning: card     CELL_DOFREE='ALL' ignored
Warning: card / ignored

     Current dimensions of program PWSCF are:
     Max number of different atomic species (ntypx) = 10
     Max number of k-points (npk) =  40000
     Max angular momentum in pseudopotentials (lmaxx) =  3

     Atomic positions and unit cell read from directory:
     /share/inl/marcel/TB-SO/GaSgamma_outdir/GaSgamma.save/
 

     IMPORTANT: XC functional enforced from input :
     Exchange-correlation      = SLA+PW+PSX+PSC ( 1  4 10  8 0 0)
     Any further DFT definition will be discarded
     Please, verify this is what you really want


     Subspace diagonalization in iterative solution of the eigenvalue problem:
     one sub-group per band group will be used
     scalapack distributed-memory algorithm (size of sub-group:  4*  4 procs)

 
     Parallelization info
     --------------------
     sticks:   dense  smooth     PW     G-vecs:    dense   smooth      PW
     Min          39      39     10                 8529     8529    1210
     Max          40      40     11                 8566     8566    1257
     Sum        1891    1891    511               410167   410167   59325
 


     bravais-lattice index     =            0
     lattice parameter (alat)  =       6.7628  a.u.
     unit-cell volume          =    1652.4844 (a.u.)^3
     number of atoms/cell      =           12
     number of atomic types    =            2
     number of electrons       =       114.00
     number of Kohn-Sham states=          120
     kinetic-energy cutoff     =     150.0000  Ry
     charge density cutoff     =     600.0000  Ry
     Exchange-correlation      = SLA+PW+PSX+PSC ( 1  4 10  8 0 0)
     Non magnetic calculation with spin-orbit


     celldm(1)=   6.762775  celldm(2)=   0.000000  celldm(3)=   0.000000
     celldm(4)=   0.000000  celldm(5)=   0.000000  celldm(6)=   0.000000

     crystal axes: (cart. coord. in units of alat)
               a(1) = (   1.000000   0.000000   0.000000 )  
               a(2) = (  -0.500000   0.866025   0.000000 )  
               a(3) = (   0.000000   0.000000   6.169244 )  

     reciprocal axes: (cart. coord. in units 2 pi/alat)
               b(1) = (  1.000000  0.577350 -0.000000 )  
               b(2) = (  0.000000  1.154701 -0.000000 )  
               b(3) = (  0.000000  0.000000  0.162094 )  


     PseudoPot. # 1 for Ga read from file:
     /home/mclaro/pseudo/ONCVPSP/sg15/Ga_ONCV_PBE_fr.upf
     MD5 check sum: 291fdaf421ec3a7833e0cf5917f67014
     Pseudo is Norm-conserving, Zval = 13.0
     Generated using ONCVPSP code by D. R. Hamann
     Using radial grid of 1926 points, 10 beta functions with: 
                l(1) =   0
                l(2) =   0
                l(3) =   1
                l(4) =   1
                l(5) =   1
                l(6) =   1
                l(7) =   2
                l(8) =   2
                l(9) =   2
               l(10) =   2

     PseudoPot. # 2 for S  read from file:
     /home/mclaro/pseudo/ONCVPSP/sg15/S_ONCV_PBE_fr.upf
     MD5 check sum: 5283c4e0603dd04c7219414e5521bad4
     Pseudo is Norm-conserving, Zval =  6.0
     Generated using ONCVPSP code by D. R. Hamann
     Using radial grid of 1146 points,  6 beta functions with: 
                l(1) =   0
                l(2) =   0
                l(3) =   1
                l(4) =   1
                l(5) =   1
                l(6) =   1

     atomic species   valence    mass     pseudopotential
        Ga            13.00    69.72300     Ga( 1.00)
        S              6.00    32.06500     S ( 1.00)

      6 Sym. Ops. (no inversion) found


                                    s                        frac. trans.

      isym =  1     identity                                     

 cryst.   s( 1) = (     1          0          0      )
                  (     0          1          0      )
                  (     0          0          1      )

 cart.    s( 1) = (  1.0000000  0.0000000 -0.0000000 )
                  (  0.0000000  1.0000000  0.0000000 )
                  (  0.0000000  0.0000000  1.0000000 )


      isym =  2     120 deg rotation - cryst. axis [0,0,1]       

 cryst.   s( 2) = (     0          1          0      )
                  (    -1         -1          0      )
                  (     0          0          1      )

 cart.    s( 2) = ( -0.5000000 -0.8660254  0.0000000 )
                  (  0.8660254 -0.5000000  0.0000000 )
                  (  0.0000000  0.0000000  1.0000000 )


      isym =  3     120 deg rotation - cryst. axis [0,0,-1]      

 cryst.   s( 3) = (    -1         -1          0      )
                  (     1          0          0      )
                  (     0          0          1      )

 cart.    s( 3) = ( -0.5000000  0.8660254  0.0000000 )
                  ( -0.8660254 -0.5000000  0.0000000 )
                  (  0.0000000  0.0000000  1.0000000 )


      isym =  4     inv. 180 deg rotation - cart. axis [1,0,0]   

 cryst.   s( 4) = (    -1          0          0      )
                  (     1          1          0      )
                  (     0          0          1      )

 cart.    s( 4) = ( -1.0000000 -0.0000000  0.0000000 )
                  (  0.0000000  1.0000000  0.0000000 )
                  (  0.0000000  0.0000000  1.0000000 )


      isym =  5     inv. 180 deg rotation - cryst. axis [0,1,0]  

 cryst.   s( 5) = (     1          1          0      )
                  (     0         -1          0      )
                  (     0          0          1      )

 cart.    s( 5) = (  0.5000000  0.8660254 -0.0000000 )
                  (  0.8660254 -0.5000000  0.0000000 )
                  (  0.0000000  0.0000000  1.0000000 )


      isym =  6     inv. 180 deg rotation - cryst. axis [1,1,0]  

 cryst.   s( 6) = (     0         -1          0      )
                  (    -1          0          0      )
                  (     0          0          1      )

 cart.    s( 6) = (  0.5000000 -0.8660254  0.0000000 )
                  ( -0.8660254 -0.5000000  0.0000000 )
                  (  0.0000000  0.0000000  1.0000000 )


   Cartesian axes

     site n.     atom                  positions (alat units)
         1           S   tau(   1) = (   0.0000000   0.0000000   1.4618049  )
         2           S   tau(   2) = (  -0.0000000   0.5773503   0.5923321  )
         3           S   tau(   3) = (   0.5000000   0.2886751   3.5189287  )
         4           S   tau(   4) = (   0.0000000   0.0000000   2.6480520  )
         5           S   tau(   5) = (  -0.0000000   0.5773503   5.5757237  )
         6           S   tau(   6) = (   0.5000000   0.2886751   4.7047725  )
         7           Ga  tau(   7) = (   0.5000000   0.2886751   1.7416346  )
         8           Ga  tau(   8) = (   0.0000000   0.0000000   0.3125632  )
         9           Ga  tau(   9) = (  -0.0000000   0.5773503   3.7986932  )
        10           Ga  tau(  10) = (   0.5000000   0.2886751   2.3681520  )
        11           Ga  tau(  11) = (   0.0000000   0.0000000   5.8554796  )
        12           Ga  tau(  12) = (  -0.0000000   0.5773503   4.4249882  )

   Crystallographic axes

     site n.     atom                  positions (cryst. coord.)
         1           S   tau(   1) = (  0.0000000  0.0000000  0.2369504  )
         2           S   tau(   2) = (  0.3333333  0.6666667  0.0960137  )
         3           S   tau(   3) = (  0.6666667  0.3333333  0.5703987  )
         4           S   tau(   4) = (  0.0000000  0.0000000  0.4292344  )
         5           S   tau(   5) = (  0.3333333  0.6666667  0.9037937  )
         6           S   tau(   6) = (  0.6666667  0.3333333  0.7626174  )
         7           Ga  tau(   7) = (  0.6666667  0.3333333  0.2823093  )
         8           Ga  tau(   8) = (  0.0000000  0.0000000  0.0506648  )
         9           Ga  tau(   9) = (  0.3333333  0.6666667  0.6157470  )
        10           Ga  tau(  10) = (  0.6666667  0.3333333  0.3838642  )
        11           Ga  tau(  11) = ( -0.0000000  0.0000000  0.9491406  )
        12           Ga  tau(  12) = (  0.3333333  0.6666667  0.7172659  )

     number of k points=   160
                       cart. coord. in units 2pi/alat
        k(    1) = (   0.0000000   0.0000000   0.0810472), wk =   0.0062500
        k(    2) = (   0.0000000   0.0213833   0.0810472), wk =   0.0062500
        k(    3) = (   0.0000000   0.0427667   0.0810472), wk =   0.0062500
        k(    4) = (   0.0000000   0.0641500   0.0810472), wk =   0.0062500
        k(    5) = (   0.0000000   0.0855334   0.0810472), wk =   0.0062500
        k(    6) = (   0.0000000   0.1069167   0.0810472), wk =   0.0062500
        k(    7) = (   0.0000000   0.1283001   0.0810472), wk =   0.0062500
        k(    8) = (   0.0000000   0.1496834   0.0810472), wk =   0.0062500
        k(    9) = (   0.0000000   0.1710667   0.0810472), wk =   0.0062500
        k(   10) = (   0.0000000   0.1924501   0.0810472), wk =   0.0062500
        k(   11) = (   0.0000000   0.2138334   0.0810472), wk =   0.0062500
        k(   12) = (   0.0000000   0.2352168   0.0810472), wk =   0.0062500
        k(   13) = (   0.0000000   0.2566001   0.0810472), wk =   0.0062500
        k(   14) = (   0.0000000   0.2779835   0.0810472), wk =   0.0062500
        k(   15) = (   0.0000000   0.2993668   0.0810472), wk =   0.0062500
        k(   16) = (   0.0000000   0.3207501   0.0810472), wk =   0.0062500
        k(   17) = (   0.0000000   0.3421335   0.0810472), wk =   0.0062500
        k(   18) = (   0.0000000   0.3635168   0.0810472), wk =   0.0062500
        k(   19) = (   0.0000000   0.3849002   0.0810472), wk =   0.0062500
        k(   20) = (   0.0000000   0.4062835   0.0810472), wk =   0.0062500
        k(   21) = (   0.0000000   0.4276669   0.0810472), wk =   0.0062500
        k(   22) = (   0.0000000   0.4490502   0.0810472), wk =   0.0062500
        k(   23) = (   0.0000000   0.4704336   0.0810472), wk =   0.0062500
        k(   24) = (   0.0000000   0.4918169   0.0810472), wk =   0.0062500
        k(   25) = (   0.0000000   0.5132002   0.0810472), wk =   0.0062500
        k(   26) = (   0.0000000   0.5345836   0.0810472), wk =   0.0062500
        k(   27) = (   0.0000000   0.5559669   0.0810472), wk =   0.0062500
        k(   28) = (   0.0000000   0.5773503   0.0810472), wk =   0.0062500
        k(   29) = (   0.0222220   0.5773499   0.0810472), wk =   0.0062500
        k(   30) = (   0.0444440   0.5773495   0.0810472), wk =   0.0062500
        k(   31) = (   0.0666660   0.5773491   0.0810472), wk =   0.0062500
        k(   32) = (   0.0888880   0.5773487   0.0810472), wk =   0.0062500
        k(   33) = (   0.1111100   0.5773483   0.0810472), wk =   0.0062500
        k(   34) = (   0.1333320   0.5773480   0.0810472), wk =   0.0062500
        k(   35) = (   0.1555540   0.5773476   0.0810472), wk =   0.0062500
        k(   36) = (   0.1777760   0.5773472   0.0810472), wk =   0.0062500
        k(   37) = (   0.1999980   0.5773468   0.0810472), wk =   0.0062500
        k(   38) = (   0.2222200   0.5773464   0.0810472), wk =   0.0062500
        k(   39) = (   0.2444420   0.5773460   0.0810472), wk =   0.0062500
        k(   40) = (   0.2666640   0.5773457   0.0810472), wk =   0.0062500
        k(   41) = (   0.2888860   0.5773453   0.0810472), wk =   0.0062500
        k(   42) = (   0.3111080   0.5773449   0.0810472), wk =   0.0062500
        k(   43) = (   0.3333300   0.5773445   0.0810472), wk =   0.0062500
        k(   44) = (   0.3225774   0.5587205   0.0810472), wk =   0.0062500
        k(   45) = (   0.3118248   0.5400965   0.0810472), wk =   0.0062500
        k(   46) = (   0.3010723   0.5214724   0.0810472), wk =   0.0062500
        k(   47) = (   0.2903197   0.5028484   0.0810472), wk =   0.0062500
        k(   48) = (   0.2795671   0.4842244   0.0810472), wk =   0.0062500
        k(   49) = (   0.2688145   0.4656004   0.0810472), wk =   0.0062500
        k(   50) = (   0.2580619   0.4469764   0.0810472), wk =   0.0062500
        k(   51) = (   0.2473094   0.4283524   0.0810472), wk =   0.0062500
        k(   52) = (   0.2365568   0.4097284   0.0810472), wk =   0.0062500
        k(   53) = (   0.2258042   0.3911043   0.0810472), wk =   0.0062500
        k(   54) = (   0.2150516   0.3724803   0.0810472), wk =   0.0062500
        k(   55) = (   0.2042990   0.3538563   0.0810472), wk =   0.0062500
        k(   56) = (   0.1935465   0.3352323   0.0810472), wk =   0.0062500
        k(   57) = (   0.1827939   0.3166083   0.0810472), wk =   0.0062500
        k(   58) = (   0.1720413   0.2979843   0.0810472), wk =   0.0062500
        k(   59) = (   0.1612887   0.2793602   0.0810472), wk =   0.0062500
        k(   60) = (   0.1505361   0.2607362   0.0810472), wk =   0.0062500
        k(   61) = (   0.1397835   0.2421122   0.0810472), wk =   0.0062500
        k(   62) = (   0.1290310   0.2234882   0.0810472), wk =   0.0062500
        k(   63) = (   0.1182784   0.2048642   0.0810472), wk =   0.0062500
        k(   64) = (   0.1075258   0.1862402   0.0810472), wk =   0.0062500
        k(   65) = (   0.0967732   0.1676161   0.0810472), wk =   0.0062500
        k(   66) = (   0.0860206   0.1489921   0.0810472), wk =   0.0062500
        k(   67) = (   0.0752681   0.1303681   0.0810472), wk =   0.0062500
        k(   68) = (   0.0645155   0.1117441   0.0810472), wk =   0.0062500
        k(   69) = (   0.0537629   0.0931201   0.0810472), wk =   0.0062500
        k(   70) = (   0.0430103   0.0744961   0.0810472), wk =   0.0062500
        k(   71) = (   0.0322577   0.0558720   0.0810472), wk =   0.0062500
        k(   72) = (   0.0215052   0.0372480   0.0810472), wk =   0.0062500
        k(   73) = (   0.0107526   0.0186240   0.0810472), wk =   0.0062500
        k(   74) = (   0.0000000   0.0000000   0.0810472), wk =   0.0062500
        k(   75) = (   0.0000000   0.0000000   0.0540315), wk =   0.0062500
        k(   76) = (   0.0000000   0.0000000   0.0270157), wk =   0.0062500
        k(   77) = (   0.0000000   0.0000000   0.0000000), wk =   0.0062500
        k(   78) = (   0.0000000   0.0213833  -0.0000000), wk =   0.0062500
        k(   79) = (   0.0000000   0.0427667  -0.0000000), wk =   0.0062500
        k(   80) = (   0.0000000   0.0641500  -0.0000000), wk =   0.0062500
        k(   81) = (   0.0000000   0.0855334  -0.0000000), wk =   0.0062500
        k(   82) = (   0.0000000   0.1069167  -0.0000000), wk =   0.0062500
        k(   83) = (   0.0000000   0.1283001  -0.0000000), wk =   0.0062500
        k(   84) = (   0.0000000   0.1496834  -0.0000000), wk =   0.0062500
        k(   85) = (   0.0000000   0.1710667  -0.0000000), wk =   0.0062500
        k(   86) = (   0.0000000   0.1924501  -0.0000000), wk =   0.0062500
        k(   87) = (   0.0000000   0.2138334  -0.0000000), wk =   0.0062500
        k(   88) = (   0.0000000   0.2352168  -0.0000000), wk =   0.0062500
        k(   89) = (   0.0000000   0.2566001  -0.0000000), wk =   0.0062500
        k(   90) = (   0.0000000   0.2779835  -0.0000000), wk =   0.0062500
        k(   91) = (   0.0000000   0.2993668  -0.0000000), wk =   0.0062500
        k(   92) = (   0.0000000   0.3207501  -0.0000000), wk =   0.0062500
        k(   93) = (   0.0000000   0.3421335  -0.0000000), wk =   0.0062500
        k(   94) = (   0.0000000   0.3635168  -0.0000000), wk =   0.0062500
        k(   95) = (   0.0000000   0.3849002  -0.0000000), wk =   0.0062500
        k(   96) = (   0.0000000   0.4062835  -0.0000000), wk =   0.0062500
        k(   97) = (   0.0000000   0.4276669  -0.0000000), wk =   0.0062500
        k(   98) = (   0.0000000   0.4490502  -0.0000000), wk =   0.0062500
        k(   99) = (   0.0000000   0.4704336  -0.0000000), wk =   0.0062500
        k(  100) = (   0.0000000   0.4918169  -0.0000000), wk =   0.0062500
        k(  101) = (   0.0000000   0.5132002  -0.0000000), wk =   0.0062500
        k(  102) = (   0.0000000   0.5345836  -0.0000000), wk =   0.0062500
        k(  103) = (   0.0000000   0.5559669  -0.0000000), wk =   0.0062500
        k(  104) = (   0.0000000   0.5773503  -0.0000000), wk =   0.0062500
        k(  105) = (   0.0222220   0.5773499  -0.0000000), wk =   0.0062500
        k(  106) = (   0.0444440   0.5773495  -0.0000000), wk =   0.0062500
        k(  107) = (   0.0666660   0.5773491  -0.0000000), wk =   0.0062500
        k(  108) = (   0.0888880   0.5773487  -0.0000000), wk =   0.0062500
        k(  109) = (   0.1111100   0.5773483  -0.0000000), wk =   0.0062500
        k(  110) = (   0.1333320   0.5773480  -0.0000000), wk =   0.0062500
        k(  111) = (   0.1555540   0.5773476  -0.0000000), wk =   0.0062500
        k(  112) = (   0.1777760   0.5773472  -0.0000000), wk =   0.0062500
        k(  113) = (   0.1999980   0.5773468  -0.0000000), wk =   0.0062500
        k(  114) = (   0.2222200   0.5773464  -0.0000000), wk =   0.0062500
        k(  115) = (   0.2444420   0.5773460  -0.0000000), wk =   0.0062500
        k(  116) = (   0.2666640   0.5773457  -0.0000000), wk =   0.0062500
        k(  117) = (   0.2888860   0.5773453  -0.0000000), wk =   0.0062500
        k(  118) = (   0.3111080   0.5773449  -0.0000000), wk =   0.0062500
        k(  119) = (   0.3333300   0.5773445  -0.0000000), wk =   0.0062500
        k(  120) = (   0.3225774   0.5587205  -0.0000000), wk =   0.0062500
        k(  121) = (   0.3118248   0.5400965  -0.0000000), wk =   0.0062500
        k(  122) = (   0.3010723   0.5214724  -0.0000000), wk =   0.0062500
        k(  123) = (   0.2903197   0.5028484  -0.0000000), wk =   0.0062500
        k(  124) = (   0.2795671   0.4842244  -0.0000000), wk =   0.0062500
        k(  125) = (   0.2688145   0.4656004  -0.0000000), wk =   0.0062500
        k(  126) = (   0.2580619   0.4469764  -0.0000000), wk =   0.0062500
        k(  127) = (   0.2473094   0.4283524  -0.0000000), wk =   0.0062500
        k(  128) = (   0.2365568   0.4097284  -0.0000000), wk =   0.0062500
        k(  129) = (   0.2258042   0.3911043  -0.0000000), wk =   0.0062500
        k(  130) = (   0.2150516   0.3724803  -0.0000000), wk =   0.0062500
        k(  131) = (   0.2042990   0.3538563  -0.0000000), wk =   0.0062500
        k(  132) = (   0.1935465   0.3352323  -0.0000000), wk =   0.0062500
        k(  133) = (   0.1827939   0.3166083  -0.0000000), wk =   0.0062500
        k(  134) = (   0.1720413   0.2979843  -0.0000000), wk =   0.0062500
        k(  135) = (   0.1612887   0.2793602  -0.0000000), wk =   0.0062500
        k(  136) = (   0.1505361   0.2607362  -0.0000000), wk =   0.0062500
        k(  137) = (   0.1397835   0.2421122  -0.0000000), wk =   0.0062500
        k(  138) = (   0.1290310   0.2234882  -0.0000000), wk =   0.0062500
        k(  139) = (   0.1182784   0.2048642  -0.0000000), wk =   0.0062500
        k(  140) = (   0.1075258   0.1862402  -0.0000000), wk =   0.0062500
        k(  141) = (   0.0967732   0.1676161  -0.0000000), wk =   0.0062500
        k(  142) = (   0.0860206   0.1489921  -0.0000000), wk =   0.0062500
        k(  143) = (   0.0752681   0.1303681  -0.0000000), wk =   0.0062500
        k(  144) = (   0.0645155   0.1117441  -0.0000000), wk =   0.0062500
        k(  145) = (   0.0537629   0.0931201  -0.0000000), wk =   0.0062500
        k(  146) = (   0.0430103   0.0744961  -0.0000000), wk =   0.0062500
        k(  147) = (   0.0322577   0.0558720  -0.0000000), wk =   0.0062500
        k(  148) = (   0.0215052   0.0372480  -0.0000000), wk =   0.0062500
        k(  149) = (   0.0107526   0.0186240  -0.0000000), wk =   0.0062500
        k(  150) = (   0.0000000   0.0000000   0.0000000), wk =   0.0062500
        k(  151) = (   0.0000000   0.5773503   0.0810472), wk =   0.0062500
        k(  152) = (   0.0000000   0.5773503   0.0607854), wk =   0.0062500
        k(  153) = (   0.0000000   0.5773503   0.0405236), wk =   0.0062500
        k(  154) = (   0.0000000   0.5773503   0.0202618), wk =   0.0062500
        k(  155) = (   0.0000000   0.5773503  -0.0000000), wk =   0.0062500
        k(  156) = (   0.3333300   0.5773445   0.0810472), wk =   0.0062500
        k(  157) = (   0.3333300   0.5773445   0.0607854), wk =   0.0062500
        k(  158) = (   0.3333300   0.5773445   0.0405236), wk =   0.0062500
        k(  159) = (   0.3333300   0.5773445   0.0202618), wk =   0.0062500
        k(  160) = (   0.3333300   0.5773445  -0.0000000), wk =   0.0062500

                       cryst. coord.
        k(    1) = (   0.0000000   0.0000000   0.5000000), wk =   0.0062500
        k(    2) = (   0.0000000   0.0185185   0.5000000), wk =   0.0062500
        k(    3) = (   0.0000000   0.0370370   0.5000000), wk =   0.0062500
        k(    4) = (   0.0000000   0.0555556   0.5000000), wk =   0.0062500
        k(    5) = (   0.0000000   0.0740741   0.5000000), wk =   0.0062500
        k(    6) = (   0.0000000   0.0925926   0.5000000), wk =   0.0062500
        k(    7) = (   0.0000000   0.1111111   0.5000000), wk =   0.0062500
        k(    8) = (   0.0000000   0.1296296   0.5000000), wk =   0.0062500
        k(    9) = (   0.0000000   0.1481481   0.5000000), wk =   0.0062500
        k(   10) = (   0.0000000   0.1666667   0.5000000), wk =   0.0062500
        k(   11) = (   0.0000000   0.1851852   0.5000000), wk =   0.0062500
        k(   12) = (   0.0000000   0.2037037   0.5000000), wk =   0.0062500
        k(   13) = (   0.0000000   0.2222222   0.5000000), wk =   0.0062500
        k(   14) = (   0.0000000   0.2407407   0.5000000), wk =   0.0062500
        k(   15) = (   0.0000000   0.2592593   0.5000000), wk =   0.0062500
        k(   16) = (   0.0000000   0.2777778   0.5000000), wk =   0.0062500
        k(   17) = (   0.0000000   0.2962963   0.5000000), wk =   0.0062500
        k(   18) = (   0.0000000   0.3148148   0.5000000), wk =   0.0062500
        k(   19) = (   0.0000000   0.3333333   0.5000000), wk =   0.0062500
        k(   20) = (   0.0000000   0.3518519   0.5000000), wk =   0.0062500
        k(   21) = (   0.0000000   0.3703704   0.5000000), wk =   0.0062500
        k(   22) = (   0.0000000   0.3888889   0.5000000), wk =   0.0062500
        k(   23) = (   0.0000000   0.4074074   0.5000000), wk =   0.0062500
        k(   24) = (   0.0000000   0.4259259   0.5000000), wk =   0.0062500
        k(   25) = (   0.0000000   0.4444444   0.5000000), wk =   0.0062500
        k(   26) = (   0.0000000   0.4629630   0.5000000), wk =   0.0062500
        k(   27) = (   0.0000000   0.4814815   0.5000000), wk =   0.0062500
        k(   28) = (   0.0000000   0.5000000   0.5000000), wk =   0.0062500
        k(   29) = (   0.0222220   0.4888887   0.5000000), wk =   0.0062500
        k(   30) = (   0.0444440   0.4777773   0.5000000), wk =   0.0062500
        k(   31) = (   0.0666660   0.4666660   0.5000000), wk =   0.0062500
        k(   32) = (   0.0888880   0.4555547   0.5000000), wk =   0.0062500
        k(   33) = (   0.1111100   0.4444433   0.5000000), wk =   0.0062500
        k(   34) = (   0.1333320   0.4333320   0.5000000), wk =   0.0062500
        k(   35) = (   0.1555540   0.4222207   0.5000000), wk =   0.0062500
        k(   36) = (   0.1777760   0.4111093   0.5000000), wk =   0.0062500
        k(   37) = (   0.1999980   0.3999980   0.5000000), wk =   0.0062500
        k(   38) = (   0.2222200   0.3888867   0.5000000), wk =   0.0062500
        k(   39) = (   0.2444420   0.3777753   0.5000000), wk =   0.0062500
        k(   40) = (   0.2666640   0.3666640   0.5000000), wk =   0.0062500
        k(   41) = (   0.2888860   0.3555527   0.5000000), wk =   0.0062500
        k(   42) = (   0.3111080   0.3444413   0.5000000), wk =   0.0062500
        k(   43) = (   0.3333300   0.3333300   0.5000000), wk =   0.0062500
        k(   44) = (   0.3225774   0.3225774   0.5000000), wk =   0.0062500
        k(   45) = (   0.3118248   0.3118248   0.5000000), wk =   0.0062500
        k(   46) = (   0.3010723   0.3010723   0.5000000), wk =   0.0062500
        k(   47) = (   0.2903197   0.2903197   0.5000000), wk =   0.0062500
        k(   48) = (   0.2795671   0.2795671   0.5000000), wk =   0.0062500
        k(   49) = (   0.2688145   0.2688145   0.5000000), wk =   0.0062500
        k(   50) = (   0.2580619   0.2580619   0.5000000), wk =   0.0062500
        k(   51) = (   0.2473094   0.2473094   0.5000000), wk =   0.0062500
        k(   52) = (   0.2365568   0.2365568   0.5000000), wk =   0.0062500
        k(   53) = (   0.2258042   0.2258042   0.5000000), wk =   0.0062500
        k(   54) = (   0.2150516   0.2150516   0.5000000), wk =   0.0062500
        k(   55) = (   0.2042990   0.2042990   0.5000000), wk =   0.0062500
        k(   56) = (   0.1935465   0.1935465   0.5000000), wk =   0.0062500
        k(   57) = (   0.1827939   0.1827939   0.5000000), wk =   0.0062500
        k(   58) = (   0.1720413   0.1720413   0.5000000), wk =   0.0062500
        k(   59) = (   0.1612887   0.1612887   0.5000000), wk =   0.0062500
        k(   60) = (   0.1505361   0.1505361   0.5000000), wk =   0.0062500
        k(   61) = (   0.1397835   0.1397835   0.5000000), wk =   0.0062500
        k(   62) = (   0.1290310   0.1290310   0.5000000), wk =   0.0062500
        k(   63) = (   0.1182784   0.1182784   0.5000000), wk =   0.0062500
        k(   64) = (   0.1075258   0.1075258   0.5000000), wk =   0.0062500
        k(   65) = (   0.0967732   0.0967732   0.5000000), wk =   0.0062500
        k(   66) = (   0.0860206   0.0860206   0.5000000), wk =   0.0062500
        k(   67) = (   0.0752681   0.0752681   0.5000000), wk =   0.0062500
        k(   68) = (   0.0645155   0.0645155   0.5000000), wk =   0.0062500
        k(   69) = (   0.0537629   0.0537629   0.5000000), wk =   0.0062500
        k(   70) = (   0.0430103   0.0430103   0.5000000), wk =   0.0062500
        k(   71) = (   0.0322577   0.0322577   0.5000000), wk =   0.0062500
        k(   72) = (   0.0215052   0.0215052   0.5000000), wk =   0.0062500
        k(   73) = (   0.0107526   0.0107526   0.5000000), wk =   0.0062500
        k(   74) = (   0.0000000   0.0000000   0.5000000), wk =   0.0062500
        k(   75) = (   0.0000000   0.0000000   0.3333333), wk =   0.0062500
        k(   76) = (   0.0000000   0.0000000   0.1666667), wk =   0.0062500
        k(   77) = (   0.0000000   0.0000000   0.0000000), wk =   0.0062500
        k(   78) = (   0.0000000   0.0185185   0.0000000), wk =   0.0062500
        k(   79) = (   0.0000000   0.0370370   0.0000000), wk =   0.0062500
        k(   80) = (   0.0000000   0.0555556   0.0000000), wk =   0.0062500
        k(   81) = (   0.0000000   0.0740741   0.0000000), wk =   0.0062500
        k(   82) = (   0.0000000   0.0925926   0.0000000), wk =   0.0062500
        k(   83) = (   0.0000000   0.1111111  -0.0000000), wk =   0.0062500
        k(   84) = (   0.0000000   0.1296296   0.0000000), wk =   0.0062500
        k(   85) = (   0.0000000   0.1481481   0.0000000), wk =   0.0062500
        k(   86) = (   0.0000000   0.1666667   0.0000000), wk =   0.0062500
        k(   87) = (   0.0000000   0.1851852   0.0000000), wk =   0.0062500
        k(   88) = (   0.0000000   0.2037037   0.0000000), wk =   0.0062500
        k(   89) = (   0.0000000   0.2222222  -0.0000000), wk =   0.0062500
        k(   90) = (   0.0000000   0.2407407   0.0000000), wk =   0.0062500
        k(   91) = (   0.0000000   0.2592593   0.0000000), wk =   0.0062500
        k(   92) = (   0.0000000   0.2777778   0.0000000), wk =   0.0062500
        k(   93) = (   0.0000000   0.2962963   0.0000000), wk =   0.0062500
        k(   94) = (   0.0000000   0.3148148   0.0000000), wk =   0.0062500
        k(   95) = (   0.0000000   0.3333333   0.0000000), wk =   0.0062500
        k(   96) = (   0.0000000   0.3518519   0.0000000), wk =   0.0062500
        k(   97) = (   0.0000000   0.3703704   0.0000000), wk =   0.0062500
        k(   98) = (   0.0000000   0.3888889   0.0000000), wk =   0.0062500
        k(   99) = (   0.0000000   0.4074074   0.0000000), wk =   0.0062500
        k(  100) = (   0.0000000   0.4259259   0.0000000), wk =   0.0062500
        k(  101) = (   0.0000000   0.4444444  -0.0000000), wk =   0.0062500
        k(  102) = (   0.0000000   0.4629630   0.0000000), wk =   0.0062500
        k(  103) = (   0.0000000   0.4814815   0.0000000), wk =   0.0062500
        k(  104) = (   0.0000000   0.5000000   0.0000000), wk =   0.0062500
        k(  105) = (   0.0222220   0.4888887   0.0000000), wk =   0.0062500
        k(  106) = (   0.0444440   0.4777773  -0.0000000), wk =   0.0062500
        k(  107) = (   0.0666660   0.4666660  -0.0000000), wk =   0.0062500
        k(  108) = (   0.0888880   0.4555547   0.0000000), wk =   0.0062500
        k(  109) = (   0.1111100   0.4444433   0.0000000), wk =   0.0062500
        k(  110) = (   0.1333320   0.4333320   0.0000000), wk =   0.0062500
        k(  111) = (   0.1555540   0.4222207   0.0000000), wk =   0.0062500
        k(  112) = (   0.1777760   0.4111093   0.0000000), wk =   0.0062500
        k(  113) = (   0.1999980   0.3999980   0.0000000), wk =   0.0062500
        k(  114) = (   0.2222200   0.3888867   0.0000000), wk =   0.0062500
        k(  115) = (   0.2444420   0.3777753   0.0000000), wk =   0.0062500
        k(  116) = (   0.2666640   0.3666640   0.0000000), wk =   0.0062500
        k(  117) = (   0.2888860   0.3555527  -0.0000000), wk =   0.0062500
        k(  118) = (   0.3111080   0.3444413   0.0000000), wk =   0.0062500
        k(  119) = (   0.3333300   0.3333300   0.0000000), wk =   0.0062500
        k(  120) = (   0.3225774   0.3225774   0.0000000), wk =   0.0062500
        k(  121) = (   0.3118248   0.3118248   0.0000000), wk =   0.0062500
        k(  122) = (   0.3010723   0.3010723  -0.0000000), wk =   0.0062500
        k(  123) = (   0.2903197   0.2903197   0.0000000), wk =   0.0062500
        k(  124) = (   0.2795671   0.2795671   0.0000000), wk =   0.0062500
        k(  125) = (   0.2688145   0.2688145  -0.0000000), wk =   0.0062500
        k(  126) = (   0.2580619   0.2580619  -0.0000000), wk =   0.0062500
        k(  127) = (   0.2473094   0.2473094   0.0000000), wk =   0.0062500
        k(  128) = (   0.2365568   0.2365568   0.0000000), wk =   0.0062500
        k(  129) = (   0.2258042   0.2258042   0.0000000), wk =   0.0062500
        k(  130) = (   0.2150516   0.2150516  -0.0000000), wk =   0.0062500
        k(  131) = (   0.2042990   0.2042990   0.0000000), wk =   0.0062500
        k(  132) = (   0.1935465   0.1935465   0.0000000), wk =   0.0062500
        k(  133) = (   0.1827939   0.1827939   0.0000000), wk =   0.0062500
        k(  134) = (   0.1720413   0.1720413   0.0000000), wk =   0.0062500
        k(  135) = (   0.1612887   0.1612887   0.0000000), wk =   0.0062500
        k(  136) = (   0.1505361   0.1505361   0.0000000), wk =   0.0062500
        k(  137) = (   0.1397835   0.1397835   0.0000000), wk =   0.0062500
        k(  138) = (   0.1290310   0.1290310  -0.0000000), wk =   0.0062500
        k(  139) = (   0.1182784   0.1182784   0.0000000), wk =   0.0062500
        k(  140) = (   0.1075258   0.1075258  -0.0000000), wk =   0.0062500
        k(  141) = (   0.0967732   0.0967732   0.0000000), wk =   0.0062500
        k(  142) = (   0.0860206   0.0860206   0.0000000), wk =   0.0062500
        k(  143) = (   0.0752681   0.0752681   0.0000000), wk =   0.0062500
        k(  144) = (   0.0645155   0.0645155  -0.0000000), wk =   0.0062500
        k(  145) = (   0.0537629   0.0537629   0.0000000), wk =   0.0062500
        k(  146) = (   0.0430103   0.0430103   0.0000000), wk =   0.0062500
        k(  147) = (   0.0322577   0.0322577  -0.0000000), wk =   0.0062500
        k(  148) = (   0.0215052   0.0215052   0.0000000), wk =   0.0062500
        k(  149) = (   0.0107526   0.0107526   0.0000000), wk =   0.0062500
        k(  150) = (   0.0000000   0.0000000   0.0000000), wk =   0.0062500
        k(  151) = (   0.0000000   0.5000000   0.5000000), wk =   0.0062500
        k(  152) = (   0.0000000   0.5000000   0.3750000), wk =   0.0062500
        k(  153) = (   0.0000000   0.5000000   0.2500000), wk =   0.0062500
        k(  154) = (   0.0000000   0.5000000   0.1250000), wk =   0.0062500
        k(  155) = (   0.0000000   0.5000000   0.0000000), wk =   0.0062500
        k(  156) = (   0.3333300   0.3333300   0.5000000), wk =   0.0062500
        k(  157) = (   0.3333300   0.3333300   0.3750000), wk =   0.0062500
        k(  158) = (   0.3333300   0.3333300   0.2500000), wk =   0.0062500
        k(  159) = (   0.3333300   0.3333300   0.1250000), wk =   0.0062500
        k(  160) = (   0.3333300   0.3333300   0.0000000), wk =   0.0062500

     Dense  grid:   410167 G-vectors     FFT dimensions: (  54,  54, 360)

     Estimated max dynamical RAM per process >      31.81MB

     Estimated total allocated dynamical RAM >    1526.87MB

     The potential is recalculated from file :
     /share/inl/marcel/TB-SO/GaSgamma_outdir/GaSgamma.save/charge-density.dat

     Starting wfc are  156 randomized atomic wfcs

     Band Structure Calculation
     Davidson diagonalization with overlap

     Computing kpt #:     1
     total cpu time spent up to now is       14.8 secs

     Computing kpt #:     2
     total cpu time spent up to now is       28.0 secs

     Computing kpt #:     3
     total cpu time spent up to now is       41.7 secs

     Computing kpt #:     4
     total cpu time spent up to now is       55.3 secs

     Computing kpt #:     5
     total cpu time spent up to now is       69.3 secs

     Computing kpt #:     6
     total cpu time spent up to now is       84.1 secs

     Computing kpt #:     7
     total cpu time spent up to now is       99.3 secs

     Computing kpt #:     8
     total cpu time spent up to now is      114.5 secs

     Computing kpt #:     9
     total cpu time spent up to now is      130.2 secs

     Computing kpt #:    10
     total cpu time spent up to now is      146.0 secs

     Computing kpt #:    11
     total cpu time spent up to now is      161.5 secs

     Computing kpt #:    12
     total cpu time spent up to now is      176.5 secs

     Computing kpt #:    13
     total cpu time spent up to now is      191.2 secs

     Computing kpt #:    14
     total cpu time spent up to now is      204.7 secs

     Computing kpt #:    15
     total cpu time spent up to now is      218.4 secs

     Computing kpt #:    16
     total cpu time spent up to now is      231.8 secs

     Computing kpt #:    17
     total cpu time spent up to now is      245.1 secs

     Computing kpt #:    18
     total cpu time spent up to now is      258.3 secs

     Computing kpt #:    19
     total cpu time spent up to now is      271.5 secs

     Computing kpt #:    20
     total cpu time spent up to now is      284.8 secs

     Computing kpt #:    21
     total cpu time spent up to now is      298.2 secs

     Computing kpt #:    22
     total cpu time spent up to now is      312.2 secs

     Computing kpt #:    23
     total cpu time spent up to now is      325.7 secs

     Computing kpt #:    24
     total cpu time spent up to now is      339.0 secs

     Computing kpt #:    25
     total cpu time spent up to now is      352.4 secs

     Computing kpt #:    26
     total cpu time spent up to now is      365.8 secs

     Computing kpt #:    27
     total cpu time spent up to now is      379.1 secs

     Computing kpt #:    28
     total cpu time spent up to now is      392.6 secs

     Computing kpt #:    29
     total cpu time spent up to now is      406.0 secs

     Computing kpt #:    30
     total cpu time spent up to now is      419.4 secs

     Computing kpt #:    31
     total cpu time spent up to now is      432.8 secs

     Computing kpt #:    32
     total cpu time spent up to now is      446.2 secs

     Computing kpt #:    33
     total cpu time spent up to now is      459.5 secs

     Computing kpt #:    34
     total cpu time spent up to now is      473.2 secs

     Computing kpt #:    35
     total cpu time spent up to now is      486.4 secs

     Computing kpt #:    36
     total cpu time spent up to now is      499.4 secs

     Computing kpt #:    37
     total cpu time spent up to now is      512.7 secs

     Computing kpt #:    38
     total cpu time spent up to now is      525.4 secs

     Computing kpt #:    39
     total cpu time spent up to now is      538.3 secs

     Computing kpt #:    40
     total cpu time spent up to now is      551.1 secs

     Computing kpt #:    41
     total cpu time spent up to now is      563.7 secs

     Computing kpt #:    42
     total cpu time spent up to now is      576.1 secs

     Computing kpt #:    43
     total cpu time spent up to now is      588.6 secs

     Computing kpt #:    44
     total cpu time spent up to now is      601.2 secs

     Computing kpt #:    45
     total cpu time spent up to now is      613.6 secs

     Computing kpt #:    46
     total cpu time spent up to now is      626.1 secs

     Computing kpt #:    47
     total cpu time spent up to now is      638.5 secs

     Computing kpt #:    48
     total cpu time spent up to now is      651.2 secs

     Computing kpt #:    49
     total cpu time spent up to now is      664.1 secs

     Computing kpt #:    50
     total cpu time spent up to now is      677.0 secs

     Computing kpt #:    51
     total cpu time spent up to now is      689.9 secs

     Computing kpt #:    52
     total cpu time spent up to now is      703.0 secs

     Computing kpt #:    53
     total cpu time spent up to now is      716.1 secs

     Computing kpt #:    54
     total cpu time spent up to now is      729.5 secs

     Computing kpt #:    55
     total cpu time spent up to now is      742.6 secs

     Computing kpt #:    56
     total cpu time spent up to now is      755.7 secs

     Computing kpt #:    57
     total cpu time spent up to now is      768.8 secs

     Computing kpt #:    58
     total cpu time spent up to now is      782.4 secs

     Computing kpt #:    59
     total cpu time spent up to now is      796.2 secs

     Computing kpt #:    60
     total cpu time spent up to now is      810.8 secs

     Computing kpt #:    61
     total cpu time spent up to now is      826.4 secs

     Computing kpt #:    62
     total cpu time spent up to now is      841.9 secs

     Computing kpt #:    63
     total cpu time spent up to now is      859.8 secs

     Computing kpt #:    64
     total cpu time spent up to now is      881.0 secs

     Computing kpt #:    65
     total cpu time spent up to now is      897.0 secs

     Computing kpt #:    66
     total cpu time spent up to now is      913.0 secs

     Computing kpt #:    67
     total cpu time spent up to now is      928.1 secs

     Computing kpt #:    68
     total cpu time spent up to now is      943.3 secs

     Computing kpt #:    69
     total cpu time spent up to now is      958.4 secs

     Computing kpt #:    70
     total cpu time spent up to now is      973.2 secs

     Computing kpt #:    71
     total cpu time spent up to now is      986.8 secs

     Computing kpt #:    72
     total cpu time spent up to now is     1000.2 secs

     Computing kpt #:    73
     total cpu time spent up to now is     1013.8 secs

     Computing kpt #:    74
     total cpu time spent up to now is     1027.4 secs

     Computing kpt #:    75
     total cpu time spent up to now is     1041.5 secs

     Computing kpt #:    76
     total cpu time spent up to now is     1055.3 secs

     Computing kpt #:    77
     total cpu time spent up to now is     1068.6 secs

     Computing kpt #:    78
     total cpu time spent up to now is     1083.3 secs

     Computing kpt #:    79
     total cpu time spent up to now is     1097.3 secs

     Computing kpt #:    80
     total cpu time spent up to now is     1110.8 secs

     Computing kpt #:    81
     total cpu time spent up to now is     1124.4 secs

     Computing kpt #:    82
     total cpu time spent up to now is     1138.3 secs

     Computing kpt #:    83
     total cpu time spent up to now is     1153.1 secs

     Computing kpt #:    84
     total cpu time spent up to now is     1168.3 secs

     Computing kpt #:    85
     total cpu time spent up to now is     1185.8 secs

     Computing kpt #:    86
     total cpu time spent up to now is     1202.9 secs

     Computing kpt #:    87
     total cpu time spent up to now is     1218.0 secs

     Computing kpt #:    88
     total cpu time spent up to now is     1233.4 secs

     Computing kpt #:    89
     total cpu time spent up to now is     1247.6 secs

     Computing kpt #:    90
     total cpu time spent up to now is     1260.9 secs

     Computing kpt #:    91
     total cpu time spent up to now is     1274.2 secs

     Computing kpt #:    92
     total cpu time spent up to now is     1287.8 secs

     Computing kpt #:    93
     total cpu time spent up to now is     1301.4 secs

     Computing kpt #:    94
     total cpu time spent up to now is     1315.2 secs

     Computing kpt #:    95
     total cpu time spent up to now is     1328.3 secs

     Computing kpt #:    96
     total cpu time spent up to now is     1342.4 secs

     Computing kpt #:    97
     total cpu time spent up to now is     1355.7 secs

     Computing kpt #:    98
     total cpu time spent up to now is     1368.8 secs

     Computing kpt #:    99
     total cpu time spent up to now is     1382.0 secs

     Computing kpt #:   100
     total cpu time spent up to now is     1396.0 secs

     Computing kpt #:   101
     total cpu time spent up to now is     1409.6 secs

     Computing kpt #:   102
     total cpu time spent up to now is     1422.6 secs

     Computing kpt #:   103
     total cpu time spent up to now is     1435.8 secs

     Computing kpt #:   104
     total cpu time spent up to now is     1448.9 secs

     Computing kpt #:   105
     total cpu time spent up to now is     1462.2 secs

     Computing kpt #:   106
     total cpu time spent up to now is     1475.7 secs

     Computing kpt #:   107
     total cpu time spent up to now is     1488.8 secs

     Computing kpt #:   108
     total cpu time spent up to now is     1502.1 secs

     Computing kpt #:   109
     total cpu time spent up to now is     1515.5 secs

     Computing kpt #:   110
     total cpu time spent up to now is     1528.4 secs

     Computing kpt #:   111
     total cpu time spent up to now is     1541.3 secs

     Computing kpt #:   112
     total cpu time spent up to now is     1554.1 secs

     Computing kpt #:   113
     total cpu time spent up to now is     1566.9 secs

     Computing kpt #:   114
     total cpu time spent up to now is     1579.5 secs

     Computing kpt #:   115
     total cpu time spent up to now is     1592.1 secs

     Computing kpt #:   116
     total cpu time spent up to now is     1604.4 secs

     Computing kpt #:   117
     total cpu time spent up to now is     1616.8 secs

     Computing kpt #:   118
     total cpu time spent up to now is     1629.1 secs

     Computing kpt #:   119
     total cpu time spent up to now is     1641.2 secs

     Computing kpt #:   120
     total cpu time spent up to now is     1653.4 secs

     Computing kpt #:   121
     total cpu time spent up to now is     1665.6 secs

     Computing kpt #:   122
     total cpu time spent up to now is     1678.1 secs

     Computing kpt #:   123
     total cpu time spent up to now is     1690.9 secs

     Computing kpt #:   124
     total cpu time spent up to now is     1703.3 secs

     Computing kpt #:   125
     total cpu time spent up to now is     1715.8 secs

     Computing kpt #:   126
     total cpu time spent up to now is     1728.3 secs

     Computing kpt #:   127
     total cpu time spent up to now is     1740.9 secs

     Computing kpt #:   128
     total cpu time spent up to now is     1753.6 secs

     Computing kpt #:   129
     total cpu time spent up to now is     1766.4 secs

     Computing kpt #:   130
     total cpu time spent up to now is     1779.3 secs

     Computing kpt #:   131
     total cpu time spent up to now is     1792.2 secs

     Computing kpt #:   132
     total cpu time spent up to now is     1805.7 secs

     Computing kpt #:   133
     total cpu time spent up to now is     1818.8 secs

     Computing kpt #:   134
     total cpu time spent up to now is     1832.0 secs

     Computing kpt #:   135
     total cpu time spent up to now is     1845.5 secs

     Computing kpt #:   136
     total cpu time spent up to now is     1860.1 secs

     Computing kpt #:   137
     total cpu time spent up to now is     1875.0 secs

     Computing kpt #:   138
     total cpu time spent up to now is     1890.2 secs

     Computing kpt #:   139
     total cpu time spent up to now is     1905.8 secs

     Computing kpt #:   140
     total cpu time spent up to now is     1921.7 secs

     Computing kpt #:   141
     c_bands:  1 eigenvalues not converged
     total cpu time spent up to now is     1944.4 secs

     Computing kpt #:   142
     total cpu time spent up to now is     1959.7 secs

     Computing kpt #:   143
     total cpu time spent up to now is     1974.4 secs

     Computing kpt #:   144
     total cpu time spent up to now is     1988.9 secs

     Computing kpt #:   145
     total cpu time spent up to now is     2002.8 secs

     Computing kpt #:   146
     total cpu time spent up to now is     2016.2 secs

     Computing kpt #:   147
     total cpu time spent up to now is     2029.6 secs

     Computing kpt #:   148
     total cpu time spent up to now is     2042.9 secs

     Computing kpt #:   149
     total cpu time spent up to now is     2056.0 secs

     Computing kpt #:   150
     total cpu time spent up to now is     2069.2 secs

     Computing kpt #:   151
     total cpu time spent up to now is     2082.4 secs

     Computing kpt #:   152
     total cpu time spent up to now is     2095.5 secs

     Computing kpt #:   153
     total cpu time spent up to now is     2108.5 secs

     Computing kpt #:   154
     total cpu time spent up to now is     2121.6 secs

     Computing kpt #:   155
     total cpu time spent up to now is     2134.5 secs

     Computing kpt #:   156
     total cpu time spent up to now is     2146.6 secs

     Computing kpt #:   157
     total cpu time spent up to now is     2158.8 secs

     Computing kpt #:   158
     total cpu time spent up to now is     2171.0 secs

     Computing kpt #:   159
     total cpu time spent up to now is     2183.2 secs

     Computing kpt #:   160
     total cpu time spent up to now is     2195.3 secs

     ethr =  6.14E-13,  avg # of iterations = 38.7

     total cpu time spent up to now is     2195.3 secs

     End of band structure calculation

          k = 0.0000 0.0000 0.0810 ( 51198 PWs)   bands (ev):

    -7.6591  -7.6591  -7.6583  -7.6583  -7.6543  -7.6543  -7.4876  -7.4876
    -7.4822  -7.4822  -7.4816  -7.4816  -7.4492  -7.4492  -7.4488  -7.4488
    -7.4484  -7.4484  -7.4192  -7.4192  -7.4188  -7.4188  -7.4186  -7.4186
    -7.1461  -7.1461  -7.1192  -7.1192  -7.1186  -7.1186  -7.0468  -7.0468
    -7.0465  -7.0465  -7.0459  -7.0459  -7.0419  -7.0419  -7.0417  -7.0417
    -7.0180  -7.0180  -6.9975  -6.9975  -6.9956  -6.9956  -6.9953  -6.9953
    -6.9544  -6.9544  -6.9539  -6.9539  -6.9143  -6.9143  -6.8715  -6.8715
    -6.8711  -6.8711  -6.8126  -6.8126  -6.7799  -6.7799  -6.7795  -6.7795
    -6.7794  -6.7794  -6.3362  -6.3362  -6.2102  -6.2102  -6.2100  -6.2100
     0.3267   0.3267   0.3279   0.3279   0.7179   0.7179   3.1345   3.1345
     4.0708   4.0708   4.0726   4.0726   5.6245   5.6245   5.6776   5.6776
     5.6785   5.6785   5.6972   5.6972   5.7501   5.7501   5.7516   5.7516
     5.8313   5.8313   5.8317   5.8317   5.8918   5.8918   5.9037   5.9037
     5.9049   5.9049   5.9639   5.9639   6.6848   6.6848   6.6869   6.6869
     7.7895   7.7895   9.3186   9.3186   9.7204   9.7204   9.7209   9.7209

          k = 0.0000 0.0214 0.0810 ( 51206 PWs)   bands (ev):

    -7.6593  -7.6592  -7.6585  -7.6584  -7.6544  -7.6544  -7.4881  -7.4881
    -7.4829  -7.4828  -7.4823  -7.4822  -7.4498  -7.4498  -7.4494  -7.4494
    -7.4490  -7.4490  -7.4195  -7.4195  -7.4191  -7.4191  -7.4188  -7.4188
    -7.1497  -7.1491  -7.1255  -7.1248  -7.1241  -7.1236  -7.0525  -7.0523
    -7.0479  -7.0479  -7.0471  -7.0471  -7.0325  -7.0321  -7.0295  -7.0293
    -7.0134  -7.0131  -6.9991  -6.9985  -6.9982  -6.9977  -6.9974  -6.9972
    -6.9495  -6.9489  -6.9488  -6.9483  -6.9125  -6.9122  -6.8705  -6.8704
    -6.8700  -6.8699  -6.8089  -6.8088  -6.7795  -6.7795  -6.7792  -6.7792
    -6.7784  -6.7784  -6.3332  -6.3331  -6.2070  -6.2069  -6.2067  -6.2067
     0.3297   0.3297   0.3310   0.3310   0.7199   0.7199   3.1372   3.1373
     4.0688   4.0688   4.0706   4.0706   5.6063   5.6064   5.6557   5.6558
     5.6595   5.6596   5.6813   5.6813   5.7318   5.7328   5.7360   5.7370
     5.8060   5.8064   5.8108   5.8109   5.8699   5.8700   5.8839   5.8849
     5.8891   5.8900   5.9468   5.9468   6.7014   6.7014   6.7034   6.7035
     7.7878   7.7883   9.3493   9.3496   9.7442   9.7443   9.7447   9.7448

          k = 0.0000 0.0428 0.0810 ( 51210 PWs)   bands (ev):

    -7.6597  -7.6595  -7.6589  -7.6587  -7.6549  -7.6548  -7.4897  -7.4897
    -7.4848  -7.4846  -7.4842  -7.4841  -7.4518  -7.4517  -7.4513  -7.4512
    -7.4508  -7.4507  -7.4204  -7.4203  -7.4200  -7.4199  -7.4197  -7.4196
    -7.1582  -7.1571  -7.1386  -7.1377  -7.1357  -7.1348  -7.0568  -7.0565
    -7.0496  -7.0496  -7.0488  -7.0488  -7.0147  -7.0143  -7.0121  -7.0120
    -7.0040  -7.0040  -7.0007  -7.0001  -6.9994  -6.9993  -6.9989  -6.9982
    -6.9371  -6.9361  -6.9353  -6.9345  -6.9080  -6.9075  -6.8666  -6.8664
    -6.8660  -6.8658  -6.7993  -6.7992  -6.7786  -6.7786  -6.7782  -6.7782
    -6.7730  -6.7729  -6.3242  -6.3240  -6.1971  -6.1971  -6.1968  -6.1968
     0.3388   0.3388   0.3400   0.3400   0.7260   0.7260   3.1453   3.1453
     4.0623   4.0623   4.0640   4.0640   5.5407   5.5409   5.5736   5.5738
     5.5899   5.5903   5.6473   5.6474   5.6870   5.6874   5.7091   5.7093
     5.7246   5.7252   5.7410   5.7416   5.7871   5.7875   5.8450   5.8459
     5.8674   5.8681   5.9167   5.9169   6.7421   6.7421   6.7442   6.7444
     7.7826   7.7834   9.4374   9.4379   9.8125   9.8127   9.8134   9.8136

          k = 0.0000 0.0642 0.0810 ( 51216 PWs)   bands (ev):

    -7.6604  -7.6600  -7.6596  -7.6593  -7.6556  -7.6554  -7.4923  -7.4922
    -7.4878  -7.4876  -7.4872  -7.4871  -7.4552  -7.4548  -7.4547  -7.4544
    -7.4537  -7.4535  -7.4220  -7.4217  -7.4215  -7.4212  -7.4211  -7.4209
    -7.1686  -7.1672  -7.1521  -7.1511  -7.1482  -7.1471  -7.0602  -7.0599
    -7.0519  -7.0519  -7.0510  -7.0510  -7.0116  -7.0110  -7.0102  -7.0098
    -7.0072  -7.0065  -6.9853  -6.9844  -6.9843  -6.9838  -6.9833  -6.9830
    -6.9214  -6.9204  -6.9187  -6.9179  -6.9029  -6.9024  -6.8573  -6.8570
    -6.8560  -6.8557  -6.7910  -6.7910  -6.7767  -6.7767  -6.7761  -6.7761
    -6.7554  -6.7552  -6.3090  -6.3088  -6.1807  -6.1807  -6.1803  -6.1803
     0.3536   0.3536   0.3549   0.3549   0.7356   0.7356   3.1585   3.1586
     4.0492   4.0493   4.0513   4.0513   5.4226   5.4229   5.4317   5.4319
     5.4507   5.4509   5.5974   5.5998   5.6069   5.6076   5.6208   5.6219
     5.6429   5.6441   5.6476   5.6501   5.6810   5.6826   5.8050   5.8057
     5.8427   5.8433   5.8854   5.8856   6.7903   6.7906   6.7937   6.7942
     7.7721   7.7731   9.5714   9.5721   9.9170   9.9174   9.9197   9.9199

          k = 0.0000 0.0855 0.0810 ( 51188 PWs)   bands (ev):

    -7.6613  -7.6608  -7.6604  -7.6601  -7.6566  -7.6563  -7.4955  -7.4954
    -7.4918  -7.4916  -7.4913  -7.4910  -7.4599  -7.4593  -7.4592  -7.4588
    -7.4580  -7.4575  -7.4240  -7.4235  -7.4235  -7.4231  -7.4229  -7.4226
    -7.1785  -7.1770  -7.1637  -7.1626  -7.1593  -7.1581  -7.0635  -7.0631
    -7.0548  -7.0547  -7.0536  -7.0534  -7.0147  -7.0139  -7.0133  -7.0128
    -7.0109  -7.0101  -6.9665  -6.9657  -6.9647  -6.9640  -6.9619  -6.9610
    -6.9077  -6.9068  -6.9052  -6.9045  -6.8987  -6.8982  -6.8382  -6.8380
    -6.8357  -6.8355  -6.7874  -6.7873  -6.7724  -6.7724  -6.7712  -6.7711
    -6.7224  -6.7221  -6.2874  -6.2872  -6.1576  -6.1575  -6.1570  -6.1570
     0.3739   0.3739   0.3752   0.3752   0.7484   0.7484   3.1764   3.1765
     4.0258   4.0260   4.0292   4.0293   5.2460   5.2461   5.2589   5.2589
     5.2643   5.2647   5.4540   5.4541   5.4663   5.4679   5.4812   5.4822
     5.5613   5.5618   5.5940   5.5958   5.6409   5.6422   5.7598   5.7603
     5.8103   5.8109   5.8479   5.8482   6.8348   6.8355   6.8417   6.8425
     7.7540   7.7551   9.7368   9.7376  10.0460  10.0466  10.0519  10.0522

          k = 0.0000 0.1069 0.0810 ( 51186 PWs)   bands (ev):

    -7.6624  -7.6618  -7.6616  -7.6611  -7.6578  -7.6575  -7.4992  -7.4991
    -7.4967  -7.4964  -7.4961  -7.4959  -7.4658  -7.4653  -7.4649  -7.4645
    -7.4639  -7.4631  -7.4262  -7.4257  -7.4255  -7.4251  -7.4249  -7.4244
    -7.1868  -7.1853  -7.1729  -7.1718  -7.1683  -7.1670  -7.0666  -7.0661
    -7.0579  -7.0578  -7.0563  -7.0561  -7.0172  -7.0165  -7.0157  -7.0152
    -7.0139  -7.0131  -6.9486  -6.9480  -6.9457  -6.9451  -6.9417  -6.9410
    -6.8992  -6.8986  -6.8975  -6.8971  -6.8954  -6.8950  -6.8117  -6.8117
    -6.8096  -6.8096  -6.7853  -6.7853  -6.7602  -6.7601  -6.7570  -6.7568
    -6.6779  -6.6775  -6.2593  -6.2590  -6.1277  -6.1276  -6.1269  -6.1268
     0.3990   0.3991   0.4006   0.4006   0.7635   0.7635   3.1983   3.1984
     3.9867   3.9869   3.9928   3.9930   5.0307   5.0308   5.0359   5.0360
     5.0774   5.0779   5.2365   5.2367   5.3273   5.3286   5.3328   5.3340
     5.5056   5.5059   5.5340   5.5355   5.5919   5.5930   5.7077   5.7081
     5.7697   5.7703   5.8029   5.8032   6.8707   6.8717   6.8830   6.8841
     7.7266   7.7279   9.9184   9.9193  10.1856  10.1866  10.1968  10.1968

          k = 0.0000 0.1283 0.0810 ( 51172 PWs)   bands (ev):

    -7.6638  -7.6630  -7.6629  -7.6623  -7.6593  -7.6589  -7.5033  -7.5031
    -7.5022  -7.5020  -7.5015  -7.5013  -7.4729  -7.4723  -7.4717  -7.4714
    -7.4713  -7.4704  -7.4283  -7.4278  -7.4274  -7.4270  -7.4269  -7.4263
    -7.1931  -7.1916  -7.1797  -7.1786  -7.1753  -7.1739  -7.0693  -7.0688
    -7.0609  -7.0608  -7.0590  -7.0587  -7.0189  -7.0182  -7.0174  -7.0170
    -7.0160  -7.0153  -6.9314  -6.9310  -6.9284  -6.9280  -6.9240  -6.9235
    -6.8945  -6.8942  -6.8934  -6.8931  -6.8929  -6.8927  -6.7940  -6.7939
    -6.7934  -6.7933  -6.7835  -6.7834  -6.7267  -6.7266  -6.7210  -6.7207
    -6.6242  -6.6238  -6.2245  -6.2241  -6.0911  -6.0909  -6.0899  -6.0898
     0.4281   0.4282   0.4303   0.4304   0.7797   0.7798   3.2229   3.2230
     3.9244   3.9248   3.9350   3.9353   4.7943   4.7944   4.7963   4.7963
     4.8716   4.8723   5.0007   5.0008   5.1904   5.1917   5.1940   5.1951
     5.4418   5.4421   5.4666   5.4681   5.5341   5.5351   5.6490   5.6493
     5.7215   5.7220   5.7509   5.7512   6.8962   6.8975   6.9159   6.9173
     7.6886   7.6899  10.1019  10.1027  10.3198  10.3216  10.3383  10.3389

          k = 0.0000 0.1497 0.0810 ( 51212 PWs)   bands (ev):

    -7.6654  -7.6645  -7.6644  -7.6638  -7.6609  -7.6605  -7.5087  -7.5084
    -7.5078  -7.5077  -7.5071  -7.5070  -7.4810  -7.4805  -7.4797  -7.4794
    -7.4791  -7.4788  -7.4302  -7.4296  -7.4291  -7.4287  -7.4287  -7.4280
    -7.1975  -7.1961  -7.1846  -7.1835  -7.1804  -7.1790  -7.0715  -7.0709
    -7.0635  -7.0634  -7.0614  -7.0610  -7.0199  -7.0193  -7.0185  -7.0181
    -7.0175  -7.0168  -6.9156  -6.9154  -6.9131  -6.9129  -6.9087  -6.9084
    -6.8915  -6.8913  -6.8909  -6.8908  -6.8905  -6.8904  -6.7865  -6.7864
    -6.7862  -6.7861  -6.7814  -6.7813  -6.6729  -6.6729  -6.6665  -6.6662
    -6.5626  -6.5622  -6.1827  -6.1823  -6.0476  -6.0473  -6.0462  -6.0460
     0.4601   0.4602   0.4634   0.4635   0.7957   0.7957   3.2477   3.2479
     3.8314   3.8320   3.8481   3.8486   4.5427   4.5428   4.5496   4.5496
     4.6550   4.6559   4.7564   4.7564   5.0676   5.0690   5.0792   5.0803
     5.3712   5.3715   5.3930   5.3945   5.4688   5.4697   5.5847   5.5850
     5.6665   5.6671   5.6926   5.6930   6.9108   6.9124   6.9399   6.9415
     7.6391   7.6404  10.2730  10.2738  10.4250  10.4288  10.4562  10.4587

          k = 0.0000 0.1711 0.0810 ( 51220 PWs)   bands (ev):

    -7.6673  -7.6663  -7.6662  -7.6655  -7.6628  -7.6623  -7.5159  -7.5155
    -7.5143  -7.5141  -7.5119  -7.5116  -7.4908  -7.4891  -7.4886  -7.4876
    -7.4872  -7.4865  -7.4317  -7.4311  -7.4306  -7.4302  -7.4301  -7.4295
    -7.2003  -7.1990  -7.1880  -7.1870  -7.1840  -7.1826  -7.0731  -7.0725
    -7.0656  -7.0655  -7.0634  -7.0630  -7.0204  -7.0199  -7.0192  -7.0188
    -7.0184  -7.0178  -6.9020  -6.9020  -6.9003  -6.9003  -6.8968  -6.8968
    -6.8887  -6.8886  -6.8879  -6.8877  -6.8876  -6.8874  -6.7819  -6.7819
    -6.7816  -6.7815  -6.7789  -6.7788  -6.6080  -6.6078  -6.6016  -6.6012
    -6.4941  -6.4936  -6.1339  -6.1335  -5.9974  -5.9970  -5.9957  -5.9954
     0.4935   0.4937   0.4985   0.4987   0.8094   0.8095   3.2685   3.2687
     3.7029   3.7037   3.7274   3.7281   4.2873   4.2873   4.2967   4.2968
     4.4349   4.4360   4.5133   4.5134   4.9745   4.9760   4.9921   4.9933
     5.2952   5.2955   5.3144   5.3159   5.3974   5.3983   5.5159   5.5162
     5.6062   5.6067   5.6292   5.6296   6.9142   6.9161   6.9548   6.9567
     7.5772   7.5786  10.4176  10.4187  10.4412  10.4460  10.5013  10.5067

          k = 0.0000 0.1925 0.0810 ( 51218 PWs)   bands (ev):

    -7.6693  -7.6682  -7.6681  -7.6674  -7.6649  -7.6643  -7.5243  -7.5237
    -7.5217  -7.5215  -7.5170  -7.5169  -7.5008  -7.4991  -7.4963  -7.4950
    -7.4948  -7.4937  -7.4330  -7.4324  -7.4318  -7.4314  -7.4313  -7.4307
    -7.2019  -7.2007  -7.1902  -7.1894  -7.1867  -7.1852  -7.0741  -7.0735
    -7.0670  -7.0669  -7.0649  -7.0645  -7.0206  -7.0201  -7.0195  -7.0191
    -7.0188  -7.0183  -6.8935  -6.8932  -6.8929  -6.8926  -6.8918  -6.8915
    -6.8837  -6.8833  -6.8821  -6.8816  -6.8798  -6.8794  -6.7778  -6.7778
    -6.7774  -6.7774  -6.7758  -6.7757  -6.5352  -6.5349  -6.5290  -6.5285
    -6.4192  -6.4187  -6.0783  -6.0779  -5.9407  -5.9402  -5.9388  -5.9382
     0.5265   0.5268   0.5339   0.5342   0.8185   0.8185   3.2759   3.2761
     3.5394   3.5404   3.5739   3.5748   4.0338   4.0339   4.0425   4.0427
     4.2202   4.2211   4.2823   4.2824   4.9139   4.9156   4.9352   4.9365
     5.2152   5.2155   5.2323   5.2339   5.3215   5.3224   5.4439   5.4441
     5.5415   5.5421   5.5620   5.5624   6.9061   6.9083   6.9603   6.9625
     7.5027   7.5041  10.3348  10.3363  10.4094  10.4124  10.4747  10.4789

          k = 0.0000 0.2138 0.0810 ( 51224 PWs)   bands (ev):

    -7.6716  -7.6704  -7.6703  -7.6695  -7.6671  -7.6665  -7.5335  -7.5328
    -7.5301  -7.5298  -7.5241  -7.5238  -7.5090  -7.5078  -7.5032  -7.5019
    -7.5010  -7.5001  -7.4340  -7.4334  -7.4328  -7.4324  -7.4323  -7.4318
    -7.2026  -7.2015  -7.1918  -7.1910  -7.1886  -7.1871  -7.0744  -7.0738
    -7.0679  -7.0678  -7.0659  -7.0655  -7.0205  -7.0201  -7.0195  -7.0191
    -7.0189  -7.0185  -6.8906  -6.8903  -6.8901  -6.8899  -6.8899  -6.8897
    -6.8748  -6.8744  -6.8733  -6.8729  -6.8705  -6.8701  -6.7734  -6.7734
    -6.7731  -6.7731  -6.7719  -6.7718  -6.4559  -6.4554  -6.4500  -6.4493
    -6.3385  -6.3381  -6.0160  -6.0156  -5.8778  -5.8770  -5.8756  -5.8749
     0.5563   0.5567   0.5673   0.5676   0.8198   0.8199   3.2516   3.2518
     3.3466   3.3477   3.3940   3.3951   3.7883   3.7883   3.7926   3.7928
     4.0237   4.0241   4.0777   4.0792   4.8826   4.8844   4.9051   4.9067
     5.1328   5.1331   5.1480   5.1499   5.2424   5.2434   5.3698   5.3700
     5.4739   5.4745   5.4920   5.4924   6.8859   6.8884   6.9560   6.9584
     7.4153   7.4167  10.1900  10.1903  10.2638  10.2649  10.3626  10.3649

          k = 0.0000 0.2352 0.0810 ( 51242 PWs)   bands (ev):

    -7.6741  -7.6728  -7.6726  -7.6718  -7.6694  -7.6688  -7.5435  -7.5426
    -7.5394  -7.5390  -7.5340  -7.5330  -7.5145  -7.5140  -7.5089  -7.5076
    -7.5063  -7.5055  -7.4348  -7.4342  -7.4337  -7.4333  -7.4332  -7.4327
    -7.2028  -7.2018  -7.1928  -7.1921  -7.1899  -7.1885  -7.0741  -7.0736
    -7.0681  -7.0681  -7.0663  -7.0659  -7.0202  -7.0198  -7.0193  -7.0189
    -7.0188  -7.0184  -6.8892  -6.8890  -6.8888  -6.8886  -6.8886  -6.8885
    -6.8662  -6.8659  -6.8650  -6.8647  -6.8624  -6.8621  -6.7686  -6.7686
    -6.7682  -6.7682  -6.7674  -6.7673  -6.3708  -6.3700  -6.3651  -6.3642
    -6.2525  -6.2521  -5.9475  -5.9470  -5.8091  -5.8080  -5.8068  -5.8057
     0.5799   0.5803   0.5955   0.5958   0.8101   0.8102   3.1319   3.1330
     3.1678   3.1679   3.1954   3.1967   3.5533   3.5535   3.5569   3.5569
     3.8450   3.8468   3.9355   3.9382   4.8740   4.8761   4.8952   4.8975
     5.0491   5.0494   5.0630   5.0655   5.1617   5.1628   5.2948   5.2948
     5.4045   5.4050   5.4204   5.4208   6.8528   6.8556   6.9411   6.9438
     7.3151   7.3166  10.0400  10.0413  10.1101  10.1101  10.2424  10.2444

          k = 0.0000 0.2566 0.0810 ( 51270 PWs)   bands (ev):

    -7.6767  -7.6753  -7.6750  -7.6742  -7.6719  -7.6712  -7.5537  -7.5527
    -7.5492  -7.5488  -7.5452  -7.5437  -7.5183  -7.5181  -7.5136  -7.5124
    -7.5108  -7.5101  -7.4355  -7.4350  -7.4345  -7.4341  -7.4340  -7.4335
    -7.2027  -7.2018  -7.1934  -7.1930  -7.1910  -7.1896  -7.0734  -7.0728
    -7.0679  -7.0678  -7.0663  -7.0659  -7.0198  -7.0194  -7.0189  -7.0186
    -7.0184  -7.0181  -6.8882  -6.8881  -6.8878  -6.8876  -6.8876  -6.8876
    -6.8591  -6.8589  -6.8580  -6.8579  -6.8558  -6.8555  -6.7633  -6.7632
    -6.7629  -6.7629  -6.7623  -6.7621  -6.2805  -6.2794  -6.2750  -6.2738
    -6.1616  -6.1613  -5.8730  -5.8726  -5.7353  -5.7337  -5.7327  -5.7312
     0.5929   0.5935   0.6146   0.6150   0.7857   0.7858   2.9026   2.9036
     2.9835   2.9848   3.0124   3.0128   3.3336   3.3337   3.3452   3.3454
     3.6814   3.6831   3.8804   3.8827   4.8817   4.8844   4.8977   4.9022
     4.9655   4.9658   4.9795   4.9840   5.0808   5.0822   5.2197   5.2197
     5.3343   5.3348   5.3483   5.3488   6.8060   6.8092   6.9147   6.9176
     7.2025   7.2041   9.8956   9.8975   9.9588   9.9595  10.1253  10.1272

          k = 0.0000 0.2780 0.0810 ( 51262 PWs)   bands (ev):

    -7.6795  -7.6780  -7.6776  -7.6769  -7.6745  -7.6737  -7.5639  -7.5629
    -7.5591  -7.5587  -7.5567  -7.5549  -7.5212  -7.5211  -7.5174  -7.5163
    -7.5145  -7.5139  -7.4362  -7.4356  -7.4352  -7.4348  -7.4347  -7.4343
    -7.2023  -7.2015  -7.1940  -7.1936  -7.1919  -7.1905  -7.0722  -7.0717
    -7.0672  -7.0671  -7.0658  -7.0654  -7.0192  -7.0188  -7.0184  -7.0180
    -7.0179  -7.0176  -6.8873  -6.8872  -6.8869  -6.8868  -6.8868  -6.8867
    -6.8533  -6.8532  -6.8525  -6.8524  -6.8505  -6.8504  -6.7576  -6.7575
    -6.7572  -6.7571  -6.7567  -6.7566  -6.1855  -6.1840  -6.1803  -6.1787
    -6.0665  -6.0663  -5.7934  -5.7930  -5.6568  -5.6548  -5.6541  -5.6520
     0.5906   0.5913   0.6199   0.6204   0.7431   0.7433   2.6651   2.6658
     2.7616   2.7630   2.8068   2.8075   3.1427   3.1427   3.1598   3.1602
     3.5424   3.5438   3.8866   3.8885   4.8793   4.8830   4.8832   4.8861
     4.8995   4.9036   4.9282   4.9349   5.0015   5.0041   5.1457   5.1457
     5.2644   5.2650   5.2768   5.2772   6.7450   6.7485   6.8759   6.8790
     7.0784   7.0801   9.7611   9.7635   9.8156   9.8168  10.0142  10.0161

          k = 0.0000 0.2994 0.0810 ( 51272 PWs)   bands (ev):

    -7.6824  -7.6808  -7.6802  -7.6796  -7.6772  -7.6763  -7.5738  -7.5728
    -7.5690  -7.5685  -7.5678  -7.5660  -7.5237  -7.5234  -7.5206  -7.5195
    -7.5177  -7.5171  -7.4368  -7.4363  -7.4359  -7.4355  -7.4354  -7.4350
    -7.2020  -7.2012  -7.1944  -7.1942  -7.1926  -7.1913  -7.0707  -7.0702
    -7.0661  -7.0660  -7.0649  -7.0646  -7.0185  -7.0182  -7.0177  -7.0174
    -7.0173  -7.0170  -6.8865  -6.8864  -6.8860  -6.8860  -6.8859  -6.8859
    -6.8489  -6.8488  -6.8481  -6.8481  -6.8465  -6.8463  -6.7516  -6.7516
    -6.7513  -6.7512  -6.7508  -6.7507  -6.0866  -6.0845  -6.0816  -6.0794
    -5.9679  -5.9677  -5.7092  -5.7089  -5.5746  -5.5720  -5.5717  -5.5690
     0.5681   0.5689   0.6065   0.6070   0.6801   0.6803   2.4248   2.4254
     2.5331   2.5343   2.5777   2.5785   2.9884   2.9886   3.0063   3.0070
     3.4338   3.4350   3.9268   3.9284   4.8025   4.8028   4.8071   4.8091
     4.9029   4.9094   4.9451   4.9464   4.9487   4.9501   5.0736   5.0737
     5.1959   5.1965   5.2066   5.2071   6.6695   6.6733   6.8240   6.8271
     6.9441   6.9459   9.6393   9.6420   9.6829   9.6846   9.9104   9.9123

          k = 0.0000 0.3208 0.0810 ( 51286 PWs)   bands (ev):

    -7.6853  -7.6837  -7.6829  -7.6825  -7.6799  -7.6789  -7.5832  -7.5824
    -7.5790  -7.5780  -7.5780  -7.5765  -7.5257  -7.5253  -7.5233  -7.5221
    -7.5204  -7.5199  -7.4374  -7.4369  -7.4366  -7.4361  -7.4361  -7.4357
    -7.2016  -7.2010  -7.1948  -7.1947  -7.1933  -7.1920  -7.0689  -7.0684
    -7.0648  -7.0646  -7.0638  -7.0634  -7.0177  -7.0174  -7.0170  -7.0167
    -7.0165  -7.0163  -6.8856  -6.8856  -6.8851  -6.8851  -6.8850  -6.8850
    -6.8455  -6.8454  -6.8447  -6.8447  -6.8434  -6.8432  -6.7457  -6.7456
    -6.7453  -6.7452  -6.7449  -6.7448  -5.9844  -5.9816  -5.9797  -5.9768
    -5.8665  -5.8664  -5.6214  -5.6212  -5.4896  -5.4868  -5.4858  -5.4829
     0.5216   0.5224   0.5697   0.5703   0.5961   0.5963   2.1863   2.1867
     2.3024   2.3034   2.3410   2.3418   2.8754   2.8759   2.8897   2.8906
     3.3575   3.3585   3.9858   3.9873   4.7251   4.7254   4.7303   4.7312
     4.8396   4.8414   4.9679   4.9689   4.9724   4.9733   5.0059   5.0067
     5.1295   5.1302   5.1387   5.1392   6.5798   6.5839   6.7584   6.7617
     6.8011   6.8030   9.5316   9.5346   9.5622   9.5643   9.8144   9.8162

          k = 0.0000 0.3421 0.0810 ( 51238 PWs)   bands (ev):

    -7.6883  -7.6866  -7.6856  -7.6854  -7.6827  -7.6816  -7.5921  -7.5914
    -7.5889  -7.5871  -7.5870  -7.5864  -7.5274  -7.5269  -7.5254  -7.5243
    -7.5226  -7.5222  -7.4380  -7.4375  -7.4372  -7.4367  -7.4367  -7.4364
    -7.2013  -7.2007  -7.1953  -7.1951  -7.1940  -7.1927  -7.0669  -7.0665
    -7.0633  -7.0630  -7.0625  -7.0621  -7.0169  -7.0166  -7.0162  -7.0160
    -7.0158  -7.0156  -6.8847  -6.8847  -6.8843  -6.8843  -6.8842  -6.8842
    -6.8428  -6.8428  -6.8421  -6.8421  -6.8410  -6.8409  -6.7398  -6.7397
    -6.7394  -6.7393  -6.7391  -6.7389  -5.8800  -5.8764  -5.8753  -5.8716
    -5.7633  -5.7633  -5.5309  -5.5308  -5.4028  -5.3999  -5.3979  -5.3949
     0.4496   0.4505   0.4925   0.4928   0.5073   0.5079   1.9535   1.9536
     2.0740   2.0749   2.1051   2.1060   2.8048   2.8054   2.8131   2.8141
     3.3131   3.3140   4.0560   4.0575   4.6514   4.6517   4.6562   4.6568
     4.7686   4.7695   4.9347   4.9352   4.9988   4.9995   5.0086   5.0095
     5.0664   5.0676   5.0738   5.0743   6.4769   6.4813   6.6515   6.6535
     6.6796   6.6829   9.4388   9.4421   9.4541   9.4564   9.7261   9.7278

          k = 0.0000 0.3635 0.0810 ( 51270 PWs)   bands (ev):

    -7.6912  -7.6895  -7.6884  -7.6883  -7.6854  -7.6842  -7.6002  -7.5998
    -7.5982  -7.5957  -7.5955  -7.5952  -7.5288  -7.5283  -7.5272  -7.5261
    -7.5246  -7.5242  -7.4385  -7.4380  -7.4378  -7.4374  -7.4373  -7.4370
    -7.2010  -7.2005  -7.1958  -7.1955  -7.1946  -7.1934  -7.0649  -7.0646
    -7.0617  -7.0614  -7.0609  -7.0606  -7.0160  -7.0158  -7.0154  -7.0152
    -7.0149  -7.0148  -6.8839  -6.8838  -6.8834  -6.8834  -6.8833  -6.8833
    -6.8408  -6.8407  -6.8402  -6.8400  -6.8392  -6.8391  -6.7341  -6.7340
    -6.7338  -6.7336  -6.7335  -6.7334  -5.7743  -5.7703  -5.7691  -5.7649
    -5.6596  -5.6594  -5.4388  -5.4388  -5.3155  -5.3125  -5.3091  -5.3061
     0.3540   0.3549   0.3731   0.3734   0.4199   0.4205   1.7293   1.7293
     1.8520   1.8528   1.8753   1.8762   2.7744   2.7748   2.7768   2.7777
     3.2977   3.2985   4.1332   4.1347   4.5822   4.5826   4.5864   4.5867
     4.7006   4.7012   4.8731   4.8734   5.0006   5.0022   5.0125   5.0130
     5.0300   5.0324   5.0444   5.0463   6.3629   6.3676   6.4976   6.4998
     6.5881   6.5914   9.3585   9.3607   9.3613   9.3643   9.6451   9.6468

          k = 0.0000 0.3849 0.0810 ( 51264 PWs)   bands (ev):

    -7.6941  -7.6923  -7.6913  -7.6910  -7.6882  -7.6869  -7.6077  -7.6075
    -7.6066  -7.6040  -7.6032  -7.6029  -7.5300  -7.5294  -7.5287  -7.5276
    -7.5262  -7.5258  -7.4391  -7.4386  -7.4384  -7.4380  -7.4379  -7.4376
    -7.2009  -7.2004  -7.1963  -7.1959  -7.1952  -7.1940  -7.0629  -7.0626
    -7.0601  -7.0598  -7.0593  -7.0590  -7.0152  -7.0149  -7.0146  -7.0144
    -7.0141  -7.0140  -6.8830  -6.8829  -6.8825  -6.8825  -6.8824  -6.8824
    -6.8392  -6.8392  -6.8386  -6.8385  -6.8378  -6.8377  -6.7288  -6.7288
    -6.7285  -6.7284  -6.7283  -6.7281  -5.6687  -5.6648  -5.6622  -5.6580
    -5.5567  -5.5563  -5.3466  -5.3464  -5.2290  -5.2259  -5.2207  -5.2178
     0.2396   0.2404   0.2428   0.2431   0.3116   0.3120   1.5164   1.5166
     1.6396   1.6403   1.6549   1.6558   2.7764   2.7774   2.7803   2.7809
     3.3070   3.3077   4.2147   4.2162   4.5182   4.5186   4.5214   4.5216
     4.6371   4.6376   4.8153   4.8154   4.9481   4.9483   4.9554   4.9559
     5.0513   5.0527   5.0797   5.0823   6.2406   6.2457   6.3423   6.3445
     6.4856   6.4888   9.2750   9.2777   9.2971   9.3007   9.5711   9.5727

          k = 0.0000 0.4063 0.0810 ( 51298 PWs)   bands (ev):

    -7.6968  -7.6949  -7.6942  -7.6935  -7.6909  -7.6895  -7.6147  -7.6145
    -7.6139  -7.6115  -7.6101  -7.6099  -7.5309  -7.5304  -7.5298  -7.5288
    -7.5275  -7.5272  -7.4396  -7.4391  -7.4390  -7.4386  -7.4384  -7.4382
    -7.2008  -7.2003  -7.1969  -7.1964  -7.1958  -7.1946  -7.0609  -7.0606
    -7.0584  -7.0582  -7.0577  -7.0574  -7.0143  -7.0141  -7.0138  -7.0136
    -7.0133  -7.0132  -6.8821  -6.8821  -6.8817  -6.8816  -6.8816  -6.8815
    -6.8380  -6.8380  -6.8375  -6.8373  -6.8367  -6.8367  -6.7240  -6.7239
    -6.7236  -6.7235  -6.7234  -6.7233  -5.5648  -5.5610  -5.5564  -5.5523
    -5.4561  -5.4555  -5.2556  -5.2552  -5.1449  -5.1418  -5.1344  -5.1315
     0.1071   0.1074   0.1132   0.1140   0.1886   0.1890   1.3176   1.3179
     1.4398   1.4404   1.4468   1.4478   2.8083   2.8093   2.8148   2.8155
     3.3353   3.3360   4.2980   4.2995   4.4604   4.4608   4.4621   4.4623
     4.5789   4.5792   4.7622   4.7623   4.8971   4.8972   4.9030   4.9036
     5.0698   5.0712   5.1113   5.1146   6.1139   6.1194   6.1886   6.1910
     6.3741   6.3773   9.2028   9.2055   9.2464   9.2501   9.5036   9.5050

          k = 0.0000 0.4277 0.0810 ( 51274 PWs)   bands (ev):

    -7.6994  -7.6974  -7.6969  -7.6958  -7.6935  -7.6920  -7.6211  -7.6207
    -7.6199  -7.6180  -7.6163  -7.6161  -7.5317  -7.5313  -7.5306  -7.5298
    -7.5286  -7.5283  -7.4400  -7.4396  -7.4395  -7.4391  -7.4389  -7.4387
    -7.2007  -7.2002  -7.1974  -7.1969  -7.1962  -7.1952  -7.0590  -7.0588
    -7.0569  -7.0567  -7.0561  -7.0559  -7.0135  -7.0134  -7.0130  -7.0128
    -7.0126  -7.0125  -6.8813  -6.8812  -6.8808  -6.8808  -6.8807  -6.8807
    -6.8370  -6.8370  -6.8366  -6.8363  -6.8359  -6.8358  -6.7196  -6.7195
    -6.7192  -6.7191  -6.7190  -6.7189  -5.4642  -5.4607  -5.4536  -5.4495
    -5.3599  -5.3590  -5.1673  -5.1667  -5.0651  -5.0619  -5.0518  -5.0490
    -0.0281  -0.0277  -0.0182  -0.0175   0.0582   0.0584   1.1354   1.1358
     1.2536   1.2545   1.2553   1.2557   2.8653   2.8663   2.8718   2.8725
     3.3769   3.3775   4.3734   4.3743   4.4084   4.4085   4.4174   4.4187
     4.5264   4.5267   4.7143   4.7144   4.8508   4.8510   4.8557   4.8564
     5.0820   5.0836   5.1360   5.1399   5.9881   5.9940   6.0404   6.0429
     6.2563   6.2594   9.1410   9.1437   9.2075   9.2111   9.4423   9.4435

          k = 0.0000 0.4491 0.0810 ( 51280 PWs)   bands (ev):

    -7.7017  -7.6998  -7.6993  -7.6979  -7.6959  -7.6943  -7.6268  -7.6261
    -7.6249  -7.6236  -7.6218  -7.6215  -7.5324  -7.5320  -7.5312  -7.5306
    -7.5295  -7.5293  -7.4405  -7.4400  -7.4400  -7.4396  -7.4393  -7.4392
    -7.2006  -7.2002  -7.1979  -7.1974  -7.1966  -7.1957  -7.0573  -7.0571
    -7.0555  -7.0554  -7.0546  -7.0545  -7.0128  -7.0126  -7.0123  -7.0121
    -7.0119  -7.0118  -6.8805  -6.8804  -6.8801  -6.8800  -6.8799  -6.8799
    -6.8363  -6.8363  -6.8358  -6.8356  -6.8353  -6.8352  -6.7157  -6.7157
    -6.7154  -6.7153  -6.7152  -6.7151  -5.3691  -5.3659  -5.3557  -5.3517
    -5.2703  -5.2691  -5.0837  -5.0827  -4.9914  -4.9882  -4.9747  -4.9720
    -0.1573  -0.1569  -0.1476  -0.1470  -0.0725  -0.0724   0.9721   0.9726
     1.0779   1.0788   1.0882   1.0887   2.9413   2.9421   2.9446   2.9451
     3.4251   3.4257   4.3552   4.3554   4.3614   4.3614   4.4734   4.4755
     4.4801   4.4804   4.6722   4.6722   4.8099   4.8102   4.8140   4.8148
     5.0862   5.0879   5.1498   5.1543   5.8700   5.8762   5.9022   5.9047
     6.1354   6.1383   9.0889   9.0915   9.1790   9.1826   9.3869   9.3879

          k = 0.0000 0.4704 0.0810 ( 51280 PWs)   bands (ev):

    -7.7038  -7.7020  -7.7013  -7.6997  -7.6982  -7.6965  -7.6316  -7.6307
    -7.6291  -7.6282  -7.6264  -7.6261  -7.5329  -7.5327  -7.5317  -7.5312
    -7.5302  -7.5300  -7.4408  -7.4405  -7.4404  -7.4400  -7.4397  -7.4396
    -7.2006  -7.2002  -7.1984  -7.1979  -7.1970  -7.1962  -7.0557  -7.0556
    -7.0542  -7.0542  -7.0533  -7.0532  -7.0121  -7.0120  -7.0116  -7.0115
    -7.0112  -7.0112  -6.8798  -6.8797  -6.8793  -6.8792  -6.8792  -6.8792
    -6.8357  -6.8357  -6.8353  -6.8351  -6.8348  -6.8347  -6.7124  -6.7124
    -6.7121  -6.7120  -6.7119  -6.7118  -5.2820  -5.2791  -5.2651  -5.2611
    -5.1897  -5.1880  -5.0064  -5.0051  -4.9258  -4.9225  -4.9049  -4.9024
    -0.2752  -0.2749  -0.2687  -0.2683  -0.1971  -0.1971   0.8303   0.8309
     0.9218   0.9227   0.9414   0.9417   3.0257   3.0261   3.0308   3.0316
     3.4732   3.4737   4.3170   4.3173   4.3210   4.3210   4.4404   4.4406
     4.5539   4.5560   4.6359   4.6360   4.7748   4.7751   4.7782   4.7791
     5.0810   5.0828   5.1483   5.1530   5.7678   5.7740   5.7791   5.7817
     6.0150   6.0177   9.0458   9.0481   9.1597   9.1631   9.3373   9.3380

          k = 0.0000 0.4918 0.0810 ( 51330 PWs)   bands (ev):

    -7.7055  -7.7040  -7.7029  -7.7012  -7.7001  -7.6985  -7.6354  -7.6346
    -7.6324  -7.6319  -7.6303  -7.6299  -7.5333  -7.5331  -7.5320  -7.5316
    -7.5308  -7.5306  -7.4411  -7.4409  -7.4407  -7.4404  -7.4401  -7.4400
    -7.2006  -7.2002  -7.1988  -7.1983  -7.1972  -7.1966  -7.0544  -7.0543
    -7.0532  -7.0532  -7.0522  -7.0522  -7.0115  -7.0114  -7.0111  -7.0110
    -7.0107  -7.0106  -6.8791  -6.8791  -6.8787  -6.8786  -6.8786  -6.8785
    -6.8353  -6.8353  -6.8349  -6.8347  -6.8344  -6.8344  -6.7097  -6.7097
    -6.7093  -6.7093  -6.7091  -6.7091  -5.2053  -5.2028  -5.1841  -5.1802
    -5.1206  -5.1186  -4.9377  -4.9360  -4.8703  -4.8671  -4.8445  -4.8423
    -0.3774  -0.3772  -0.3759  -0.3757  -0.3098  -0.3098   0.7123   0.7129
     0.7880   0.7889   0.8171   0.8174   3.1093   3.1096   3.1276   3.1282
     3.5138   3.5142   4.2846   4.2848   4.2876   4.2876   4.4075   4.4077
     4.6059   4.6060   4.6317   4.6339   4.7458   4.7461   4.7487   4.7498
     5.0654   5.0672   5.1282   5.1327   5.6772   5.6797   5.6894   5.6951
     5.8992   5.9016   9.0111   9.0131   9.1486   9.1518   9.2933   9.2937

          k = 0.0000 0.5132 0.0810 ( 51294 PWs)   bands (ev):

    -7.7068  -7.7057  -7.7040  -7.7025  -7.7017  -7.7001  -7.6383  -7.6376
    -7.6349  -7.6347  -7.6333  -7.6330  -7.5336  -7.5335  -7.5323  -7.5320
    -7.5312  -7.5311  -7.4414  -7.4412  -7.4409  -7.4407  -7.4403  -7.4403
    -7.2005  -7.2002  -7.1992  -7.1987  -7.1974  -7.1970  -7.0534  -7.0533
    -7.0524  -7.0524  -7.0513  -7.0513  -7.0111  -7.0110  -7.0106  -7.0106
    -7.0103  -7.0102  -6.8786  -6.8786  -6.8782  -6.8781  -6.8780  -6.8780
    -6.8350  -6.8349  -6.8346  -6.8344  -6.8342  -6.8341  -6.7076  -6.7075
    -6.7072  -6.7072  -6.7070  -6.7070  -5.1418  -5.1398  -5.1155  -5.1116
    -5.0657  -5.0632  -4.8793  -4.8773  -4.8270  -4.8237  -4.7952  -4.7934
    -0.4654  -0.4651  -0.4591  -0.4587  -0.4056  -0.4055   0.6202   0.6208
     0.6785   0.6794   0.7176   0.7179   3.1874   3.1877   3.2265   3.2271
     3.5395   3.5399   4.2590   4.2592   4.2613   4.2613   4.3816   4.3818
     4.5823   4.5824   4.7019   4.7047   4.7229   4.7233   4.7283   4.7301
     5.0389   5.0405   5.0922   5.0958   5.6025   5.6047   5.6378   5.6424
     5.7924   5.7943   8.9845   8.9860   9.1448   9.1477   9.2549   9.2550

          k = 0.0000 0.5346 0.0810 ( 51292 PWs)   bands (ev):

    -7.7078  -7.7070  -7.7048  -7.7036  -7.7027  -7.7015  -7.6403  -7.6398
    -7.6366  -7.6366  -7.6356  -7.6352  -7.5338  -7.5337  -7.5324  -7.5322
    -7.5315  -7.5314  -7.4416  -7.4414  -7.4411  -7.4410  -7.4405  -7.4405
    -7.2005  -7.2001  -7.1995  -7.1991  -7.1975  -7.1972  -7.0526  -7.0525
    -7.0519  -7.0518  -7.0507  -7.0507  -7.0107  -7.0107  -7.0103  -7.0102
    -7.0099  -7.0099  -6.8782  -6.8782  -6.8778  -6.8777  -6.8777  -6.8776
    -6.8347  -6.8347  -6.8343  -6.8342  -6.8340  -6.8339  -6.7060  -6.7060
    -6.7056  -6.7056  -6.7055  -6.7054  -5.0940  -5.0926  -5.0615  -5.0577
    -5.0272  -5.0244  -4.8333  -4.8309  -4.7975  -4.7942  -4.7586  -4.7574
    -0.5320  -0.5318  -0.5174  -0.5171  -0.4803  -0.4802   0.5559   0.5566
     0.5956   0.5965   0.6450   0.6451   3.2521   3.2523   3.3218   3.3222
     3.5438   3.5441   4.2406   4.2408   4.2424   4.2424   4.3631   4.3632
     4.5653   4.5654   4.7063   4.7064   4.7071   4.7072   4.7777   4.7785
     5.0018   5.0031   5.0509   5.0534   5.5596   5.5614   5.6092   5.6123
     5.6993   5.7006   8.9657   8.9668   9.1478   9.1503   9.2218   9.2223

          k = 0.0000 0.5560 0.0810 ( 51296 PWs)   bands (ev):

    -7.7082  -7.7078  -7.7051  -7.7045  -7.7031  -7.7024  -7.6415  -7.6412
    -7.6377  -7.6376  -7.6369  -7.6367  -7.5339  -7.5339  -7.5325  -7.5324
    -7.5317  -7.5316  -7.4416  -7.4416  -7.4412  -7.4411  -7.4407  -7.4406
    -7.2004  -7.2001  -7.1996  -7.1994  -7.1976  -7.1974  -7.0520  -7.0520
    -7.0515  -7.0515  -7.0503  -7.0503  -7.0105  -7.0105  -7.0101  -7.0101
    -7.0097  -7.0097  -6.8780  -6.8780  -6.8775  -6.8775  -6.8774  -6.8774
    -6.8346  -6.8346  -6.8342  -6.8341  -6.8339  -6.8338  -6.7051  -6.7051
    -6.7047  -6.7047  -6.7045  -6.7045  -5.0642  -5.0635  -5.0245  -5.0209
    -5.0070  -5.0038  -4.8012  -4.7984  -4.7830  -4.7798  -4.7360  -4.7354
    -0.5732  -0.5731  -0.5496  -0.5493  -0.5305  -0.5303   0.5209   0.5217
     0.5410   0.5418   0.6007   0.6008   3.2954   3.2955   3.4071   3.4074
     3.5227   3.5230   4.2296   4.2297   4.2309   4.2310   4.3519   4.3519
     4.5551   4.5551   4.6965   4.6966   4.6974   4.6975   4.8417   4.8422
     4.9554   4.9562   5.0186   5.0199   5.5506   5.5517   5.5960   5.5975
     5.6249   5.6255   8.9546   8.9552   9.1573   9.1593   9.1945   9.1954

          k = 0.0000 0.5774 0.0810 ( 51296 PWs)   bands (ev):

    -7.7083  -7.7083  -7.7050  -7.7050  -7.7030  -7.7030  -7.6417  -7.6417
    -7.6380  -7.6380  -7.6373  -7.6373  -7.5339  -7.5339  -7.5324  -7.5324
    -7.5317  -7.5317  -7.4416  -7.4416  -7.4412  -7.4412  -7.4407  -7.4407
    -7.2002  -7.2002  -7.1996  -7.1996  -7.1976  -7.1976  -7.0519  -7.0519
    -7.0514  -7.0514  -7.0501  -7.0501  -7.0104  -7.0104  -7.0100  -7.0100
    -7.0097  -7.0097  -6.8779  -6.8779  -6.8774  -6.8774  -6.8773  -6.8773
    -6.8346  -6.8346  -6.8341  -6.8341  -6.8338  -6.8338  -6.7048  -6.7048
[...]
    -7.0100  -7.0097  -6.9674  -6.9671  -6.9657  -6.9637  -6.9636  -6.9576
    -6.9145  -6.9110  -6.9008  -6.9005  -6.8991  -6.8988  -6.8595  -6.8523
    -6.8022  -6.8017  -6.7888  -6.7884  -6.7763  -6.7717  -6.7572  -6.7566
    -6.7482  -6.7476  -6.2388  -6.2387  -6.2378  -6.2376  -6.1206  -6.1204
     0.2742   0.2742   0.6076   0.6076   0.6089   0.6090   3.4491   3.4492
     3.4520   3.4521   4.3791   4.3795   5.1793   5.1859   5.2751   5.2759
     5.2816   5.2824   5.4327   5.4332   5.4371   5.4376   5.5567   5.5582
     5.5706   5.5715   5.5781   5.5790   5.6410   5.6493   5.7491   5.7527
     5.8219   5.8225   5.8276   5.8282   6.4558   6.4565   7.4554   7.4561
     7.4572   7.4579   9.8704   9.8706   9.8710   9.8712  10.1243  10.1252

          k = 0.0323 0.0559-0.0000 ( 51267 PWs)   bands (ev):

    -7.6615  -7.6609  -7.6577  -7.6572  -7.6568  -7.6563  -7.4917  -7.4911
    -7.4904  -7.4898  -7.4863  -7.4854  -7.4565  -7.4553  -7.4548  -7.4540
    -7.4531  -7.4527  -7.4234  -7.4230  -7.4227  -7.4203  -7.4199  -7.4196
    -7.1667  -7.1661  -7.1596  -7.1590  -7.1448  -7.1359  -7.0722  -7.0593
    -7.0588  -7.0456  -7.0452  -7.0447  -7.0182  -7.0103  -7.0084  -7.0080
    -7.0069  -7.0068  -6.9892  -6.9859  -6.9856  -6.9822  -6.9819  -6.9801
    -6.9328  -6.9314  -6.9066  -6.9062  -6.9050  -6.9047  -6.8703  -6.8688
    -6.8148  -6.8141  -6.8079  -6.8071  -6.7779  -6.7763  -6.7738  -6.7735
    -6.7688  -6.7685  -6.2614  -6.2613  -6.2606  -6.2604  -6.1442  -6.1441
     0.2521   0.2521   0.5914   0.5914   0.5927   0.5927   3.4415   3.4416
     3.4445   3.4446   4.4335   4.4338   5.3820   5.3872   5.4339   5.4348
     5.4389   5.4397   5.6075   5.6082   5.6094   5.6101   5.6326   5.6332
     5.6357   5.6364   5.6512   5.6529   5.6941   5.6992   5.7925   5.7950
     5.8639   5.8646   5.8682   5.8688   6.3950   6.3955   7.4448   7.4455
     7.4466   7.4473   9.7221   9.7222   9.7227   9.7229   9.9930   9.9934

          k = 0.0215 0.0372-0.0000 ( 51285 PWs)   bands (ev):

    -7.6608  -7.6605  -7.6569  -7.6566  -7.6559  -7.6558  -7.4885  -7.4881
    -7.4879  -7.4875  -7.4828  -7.4824  -7.4523  -7.4516  -7.4514  -7.4512
    -7.4508  -7.4504  -7.4209  -7.4205  -7.4202  -7.4198  -7.4194  -7.4192
    -7.1542  -7.1536  -7.1508  -7.1503  -7.1271  -7.1217  -7.0671  -7.0536
    -7.0532  -7.0468  -7.0460  -7.0455  -7.0296  -7.0148  -7.0069  -7.0067
    -7.0047  -7.0045  -7.0007  -7.0002  -6.9997  -6.9992  -6.9984  -6.9982
    -6.9510  -6.9501  -6.9140  -6.9136  -6.9128  -6.9126  -6.8750  -6.8747
    -6.8293  -6.8285  -6.8275  -6.8267  -6.7789  -6.7785  -6.7777  -6.7775
    -6.7765  -6.7763  -6.2774  -6.2774  -6.2767  -6.2766  -6.1610  -6.1610
     0.2360   0.2360   0.5793   0.5793   0.5807   0.5807   3.4351   3.4351
     3.4381   3.4382   4.4671   4.4672   5.5528   5.5536   5.5547   5.5556
     5.5565   5.5582   5.6603   5.6612   5.6633   5.6642   5.7168   5.7206
     5.7455   5.7468   5.7651   5.7657   5.7675   5.7681   5.8286   5.8299
     5.8978   5.8984   5.9004   5.9010   6.3290   6.3295   7.4296   7.4301
     7.4314   7.4319   9.6037   9.6038   9.6043   9.6045   9.8878   9.8881

          k = 0.0108 0.0186-0.0000 ( 51319 PWs)   bands (ev):

    -7.6604  -7.6602  -7.6564  -7.6563  -7.6555  -7.6554  -7.4866  -7.4866
    -7.4860  -7.4860  -7.4807  -7.4806  -7.4499  -7.4498  -7.4494  -7.4493
    -7.4491  -7.4490  -7.4196  -7.4194  -7.4191  -7.4190  -7.4189  -7.4188
    -7.1441  -7.1435  -7.1429  -7.1425  -7.1062  -7.1040  -7.0660  -7.0588
    -7.0488  -7.0484  -7.0466  -7.0463  -7.0433  -7.0380  -7.0174  -7.0171
    -7.0162  -7.0160  -6.9990  -6.9985  -6.9983  -6.9979  -6.9975  -6.9968
    -6.9646  -6.9639  -6.9209  -6.9205  -6.9203  -6.9200  -6.8770  -6.8769
    -6.8388  -6.8386  -6.8380  -6.8378  -6.7796  -6.7795  -6.7791  -6.7790
    -6.7789  -6.7788  -6.2870  -6.2869  -6.2862  -6.2862  -6.1710  -6.1710
     0.2262   0.2262   0.5719   0.5719   0.5733   0.5733   3.4308   3.4309
     3.4339   3.4339   4.4850   4.4851   5.6201   5.6207   5.6211   5.6216
     5.6733   5.6747   5.6955   5.6959   5.6967   5.6971   5.7561   5.7576
     5.7858   5.7861   5.8512   5.8518   5.8519   5.8524   5.8581   5.8583
     5.9290   5.9293   5.9300   5.9304   6.2687   6.2689   7.4159   7.4161
     7.4177   7.4180   9.5267   9.5267   9.5274   9.5275   9.8196   9.8197

          k = 0.0000 0.0000 0.0000 ( 51337 PWs)   bands (ev):

    -7.6602  -7.6602  -7.6562  -7.6562  -7.6553  -7.6553  -7.4860  -7.4860
    -7.4854  -7.4854  -7.4800  -7.4800  -7.4492  -7.4492  -7.4488  -7.4488
    -7.4484  -7.4484  -7.4192  -7.4192  -7.4188  -7.4188  -7.4186  -7.4186
    -7.1400  -7.1400  -7.1392  -7.1392  -7.0878  -7.0878  -7.0764  -7.0764
    -7.0468  -7.0468  -7.0464  -7.0464  -7.0459  -7.0459  -7.0226  -7.0226
    -7.0221  -7.0221  -6.9972  -6.9972  -6.9967  -6.9967  -6.9942  -6.9942
    -6.9702  -6.9702  -6.9237  -6.9237  -6.9233  -6.9233  -6.8775  -6.8775
    -6.8419  -6.8419  -6.8412  -6.8412  -6.7799  -6.7799  -6.7795  -6.7795
    -6.7794  -6.7794  -6.2901  -6.2901  -6.2894  -6.2894  -6.1744  -6.1744
     0.2229   0.2229   0.5694   0.5694   0.5708   0.5708   3.4294   3.4294
     3.4324   3.4324   4.4907   4.4907   5.6389   5.6389   5.6398   5.6398
     5.7092   5.7092   5.7114   5.7114   5.7126   5.7126   5.7826   5.7826
     5.7966   5.7966   5.8706   5.8706   5.8745   5.8745   5.8751   5.8751
     5.9466   5.9466   5.9476   5.9476   6.2412   6.2412   7.4104   7.4104
     7.4123   7.4123   9.4999   9.4999   9.5007   9.5007   9.7959   9.7959

          k = 0.0000 0.5774 0.0810 ( 51296 PWs)   bands (ev):

    -7.7083  -7.7083  -7.7050  -7.7050  -7.7030  -7.7030  -7.6417  -7.6417
    -7.6380  -7.6380  -7.6373  -7.6373  -7.5339  -7.5339  -7.5324  -7.5324
    -7.5317  -7.5317  -7.4416  -7.4416  -7.4412  -7.4412  -7.4407  -7.4407
    -7.2002  -7.2002  -7.1996  -7.1996  -7.1976  -7.1976  -7.0519  -7.0519
    -7.0514  -7.0514  -7.0501  -7.0501  -7.0104  -7.0104  -7.0100  -7.0100
    -7.0097  -7.0097  -6.8779  -6.8779  -6.8774  -6.8774  -6.8773  -6.8773
    -6.8346  -6.8346  -6.8341  -6.8341  -6.8338  -6.8338  -6.7048  -6.7048
    -6.7044  -6.7044  -6.7042  -6.7042  -5.0538  -5.0538  -5.0061  -5.0061
    -5.0026  -5.0026  -4.7842  -4.7842  -4.7812  -4.7812  -4.7282  -4.7282
    -0.5871  -0.5871  -0.5546  -0.5546  -0.5532  -0.5532   0.5158   0.5158
     0.5168   0.5168   0.5859   0.5859   3.3107   3.3107   3.4756   3.4756
     3.4766   3.4766   4.2260   4.2260   4.2271   4.2271   4.3481   4.3481
     4.5516   4.5516   4.6933   4.6933   4.6942   4.6942   4.9008   4.9008
     4.9025   4.9025   5.0069   5.0069   5.5735   5.5735   5.5744   5.5744
     5.5928   5.5928   8.9511   8.9511   9.1729   9.1729   9.1744   9.1744

          k = 0.0000 0.5774 0.0608 ( 51320 PWs)   bands (ev):

    -7.7084  -7.7079  -7.7057  -7.7043  -7.7035  -7.7025  -7.6417  -7.6415
    -7.6385  -7.6382  -7.6371  -7.6369  -7.5339  -7.5339  -7.5325  -7.5325
    -7.5317  -7.5317  -7.4416  -7.4416  -7.4412  -7.4412  -7.4407  -7.4407
    -7.2004  -7.2002  -7.1996  -7.1993  -7.1977  -7.1975  -7.0519  -7.0519
    -7.0513  -7.0513  -7.0502  -7.0502  -7.0104  -7.0104  -7.0100  -7.0100
    -7.0097  -7.0097  -6.8779  -6.8779  -6.8774  -6.8774  -6.8773  -6.8773
    -6.8346  -6.8345  -6.8341  -6.8341  -6.8338  -6.8338  -6.7048  -6.7048
    -6.7044  -6.7044  -6.7042  -6.7042  -5.0533  -5.0525  -5.0156  -5.0120
    -4.9970  -4.9939  -4.7936  -4.7909  -4.7740  -4.7709  -4.7295  -4.7289
    -0.5865  -0.5864  -0.5598  -0.5595  -0.5488  -0.5486   0.5055   0.5062
     0.5278   0.5286   0.5843   0.5845   3.3132   3.3132   3.4402   3.4405
     3.5107   3.5109   4.2150   4.2151   4.2406   4.2409   4.3435   4.3437
     4.5565   4.5569   4.6760   4.6767   4.7074   4.7078   4.8411   4.8412
     4.9623   4.9629   5.0112   5.0119   5.5345   5.5346   5.5850   5.5856
     5.6142   5.6147   8.9588   8.9595   9.1626   9.1647   9.1708   9.1717

          k = 0.0000 0.5774 0.0405 ( 51298 PWs)   bands (ev):

    -7.7084  -7.7075  -7.7064  -7.7045  -7.7034  -7.7023  -7.6415  -7.6412
    -7.6392  -7.6387  -7.6367  -7.6366  -7.5338  -7.5338  -7.5327  -7.5327
    -7.5316  -7.5316  -7.4417  -7.4417  -7.4412  -7.4412  -7.4407  -7.4407
    -7.2006  -7.2004  -7.1993  -7.1989  -7.1979  -7.1976  -7.0521  -7.0520
    -7.0511  -7.0511  -7.0503  -7.0502  -7.0104  -7.0104  -7.0100  -7.0100
    -7.0097  -7.0097  -6.8779  -6.8779  -6.8774  -6.8774  -6.8773  -6.8773
    -6.8346  -6.8345  -6.8341  -6.8340  -6.8339  -6.8338  -6.7048  -6.7048
    -6.7044  -6.7044  -6.7042  -6.7042  -5.0508  -5.0494  -5.0248  -5.0214
    -4.9892  -4.9869  -4.8013  -4.7992  -4.7637  -4.7608  -4.7330  -4.7318
    -0.5845  -0.5844  -0.5658  -0.5655  -0.5448  -0.5447   0.4975   0.4979
     0.5402   0.5411   0.5799   0.5803   3.3208   3.3209   3.4065   3.4068
     3.5404   3.5406   4.2067   4.2067   4.2572   4.2576   4.3311   4.3316
     4.5700   4.5706   4.6559   4.6566   4.7169   4.7173   4.7907   4.7909
     5.0127   5.0139   5.0234   5.0247   5.5053   5.5060   5.5640   5.5651
     5.6484   5.6489   8.9815   8.9829   9.1376   9.1402   9.1623   9.1627

          k = 0.0000 0.5774 0.0203 ( 51308 PWs)   bands (ev):

    -7.7082  -7.7073  -7.7066  -7.7052  -7.7029  -7.7023  -7.6412  -7.6408
    -7.6399  -7.6394  -7.6365  -7.6364  -7.5337  -7.5337  -7.5329  -7.5329
    -7.5315  -7.5315  -7.4417  -7.4417  -7.4412  -7.4412  -7.4407  -7.4407
    -7.2007  -7.2006  -7.1990  -7.1986  -7.1980  -7.1978  -7.0521  -7.0521
    -7.0510  -7.0509  -7.0504  -7.0504  -7.0104  -7.0104  -7.0100  -7.0100
    -7.0097  -7.0097  -6.8779  -6.8779  -6.8774  -6.8774  -6.8773  -6.8773
    -6.8346  -6.8346  -6.8341  -6.8341  -6.8338  -6.8338  -6.7048  -6.7048
    -6.7044  -6.7044  -6.7042  -6.7042  -5.0466  -5.0445  -5.0333  -5.0302
    -4.9837  -4.9824  -4.8061  -4.8050  -4.7540  -4.7514  -4.7383  -4.7366
    -0.5812  -0.5810  -0.5716  -0.5713  -0.5422  -0.5422   0.4924   0.4926
     0.5524   0.5533   0.5728   0.5734   3.3339   3.3339   3.3769   3.3771
     3.5607   3.5608   4.2016   4.2016   4.2756   4.2760   4.3141   4.3146
     4.5891   4.5900   4.6339   4.6347   4.7209   4.7211   4.7589   4.7591
     5.0388   5.0404   5.0427   5.0444   5.4957   5.4970   5.5353   5.5367
     5.6712   5.6714   9.0162   9.0182   9.1008   9.1035   9.1540   9.1541

          k = 0.0000 0.5774-0.0000 ( 51248 PWs)   bands (ev):

    -7.7078  -7.7078  -7.7059  -7.7059  -7.7025  -7.7025  -7.6407  -7.6407
    -7.6399  -7.6399  -7.6363  -7.6363  -7.5336  -7.5336  -7.5330  -7.5330
    -7.5315  -7.5315  -7.4417  -7.4417  -7.4412  -7.4412  -7.4407  -7.4407
    -7.2007  -7.2007  -7.1987  -7.1987  -7.1980  -7.1980  -7.0522  -7.0522
    -7.0508  -7.0508  -7.0504  -7.0504  -7.0104  -7.0104  -7.0100  -7.0100
    -7.0097  -7.0097  -6.8779  -6.8779  -6.8774  -6.8774  -6.8773  -6.8773
    -6.8346  -6.8346  -6.8341  -6.8341  -6.8338  -6.8338  -6.7048  -6.7048
    -6.7044  -6.7044  -6.7042  -6.7042  -5.0407  -5.0407  -5.0380  -5.0380
    -4.9813  -4.9813  -4.8075  -4.8075  -4.7454  -4.7454  -4.7432  -4.7432
    -0.5773  -0.5773  -0.5761  -0.5761  -0.5413  -0.5413   0.4907   0.4907
     0.5634   0.5634   0.5644   0.5644   3.3522   3.3522   3.3531   3.3531
     3.5680   3.5680   4.1999   4.1999   4.2945   4.2945   4.2959   4.2959
     4.6110   4.6110   4.6121   4.6121   4.7205   4.7205   4.7496   4.7496
     5.0487   5.0487   5.0510   5.0510   5.5084   5.5084   5.5101   5.5101
     5.6792   5.6792   9.0580   9.0580   9.0606   9.0606   9.1507   9.1507

          k = 0.3333 0.5773 0.0810 ( 51252 PWs)   bands (ev):

    -7.7197  -7.7192  -7.7187  -7.6774  -7.6770  -7.6763  -7.6554  -7.6549
    -7.6546  -7.6482  -7.6478  -7.6470  -7.5823  -7.5820  -7.5809  -7.4773
    -7.4769  -7.4763  -7.3936  -7.3931  -7.3926  -7.3905  -7.3902  -7.3900
    -7.3483  -7.3479  -7.3472  -7.1494  -7.1490  -7.1485  -7.1382  -7.1377
    -7.1373  -7.0786  -7.0782  -7.0779  -6.9824  -6.9819  -6.9818  -6.9319
    -6.9314  -6.9312  -6.8737  -6.8736  -6.8733  -6.8731  -6.8730  -6.8729
    -6.8684  -6.8679  -6.8679  -6.8363  -6.8358  -6.8358  -6.7034  -6.7030
    -6.7029  -6.6988  -6.6984  -6.6983  -4.7248  -4.7242  -4.7239  -4.6988
    -4.6982  -4.6979  -4.5176  -4.5171  -4.5170  -4.5075  -4.5070  -4.5069
    -0.3783  -0.3778  -0.3760  -0.3641  -0.3637  -0.3619   0.7911   0.7919
     0.7921   0.8147   0.8155   0.8158   2.1435   2.1441   2.1451   2.1593
     2.1598   2.1608   2.7403   2.7409   2.7410   2.7439   2.7444   2.7445
     4.3359   4.3360   4.3363   4.3551   4.3552   4.3555   5.0878   5.0886
     5.0887   5.0944   5.0949   5.0955   5.4391   5.4395   5.4397   5.4495
     5.4496   5.4501   9.5036   9.5037   9.5042   9.5213   9.5214   9.5219

          k = 0.3333 0.5773 0.0608 ( 51252 PWs)   bands (ev):

    -7.7197  -7.7192  -7.7187  -7.6774  -7.6770  -7.6763  -7.6554  -7.6549
    -7.6546  -7.6482  -7.6478  -7.6470  -7.5823  -7.5820  -7.5809  -7.4773
    -7.4769  -7.4763  -7.3936  -7.3931  -7.3926  -7.3905  -7.3902  -7.3900
    -7.3483  -7.3479  -7.3472  -7.1494  -7.1490  -7.1485  -7.1382  -7.1377
    -7.1373  -7.0786  -7.0782  -7.0779  -6.9824  -6.9819  -6.9818  -6.9319
    -6.9314  -6.9312  -6.8737  -6.8736  -6.8733  -6.8731  -6.8730  -6.8729
    -6.8684  -6.8679  -6.8679  -6.8363  -6.8358  -6.8358  -6.7034  -6.7030
    -6.7029  -6.6988  -6.6984  -6.6983  -4.7248  -4.7242  -4.7239  -4.6988
    -4.6982  -4.6979  -4.5176  -4.5171  -4.5170  -4.5075  -4.5070  -4.5069
    -0.3783  -0.3778  -0.3760  -0.3641  -0.3637  -0.3619   0.7911   0.7919
     0.7921   0.8147   0.8156   0.8158   2.1435   2.1441   2.1451   2.1592
     2.1598   2.1608   2.7404   2.7410   2.7410   2.7439   2.7445   2.7446
     4.3355   4.3356   4.3359   4.3548   4.3548   4.3552   5.0891   5.0899
     5.0901   5.0954   5.0959   5.0965   5.4384   5.4389   5.4390   5.4483
     5.4484   5.4489   9.5044   9.5045   9.5050   9.5221   9.5223   9.5228

          k = 0.3333 0.5773 0.0405 ( 51300 PWs)   bands (ev):

    -7.7197  -7.7192  -7.7187  -7.6774  -7.6770  -7.6763  -7.6554  -7.6549
    -7.6546  -7.6482  -7.6478  -7.6470  -7.5823  -7.5820  -7.5809  -7.4773
    -7.4769  -7.4763  -7.3936  -7.3931  -7.3926  -7.3905  -7.3902  -7.3900
    -7.3483  -7.3479  -7.3472  -7.1494  -7.1490  -7.1485  -7.1382  -7.1377
    -7.1373  -7.0786  -7.0782  -7.0779  -6.9824  -6.9819  -6.9818  -6.9319
    -6.9314  -6.9312  -6.8737  -6.8736  -6.8733  -6.8731  -6.8730  -6.8729
    -6.8684  -6.8679  -6.8679  -6.8363  -6.8358  -6.8358  -6.7034  -6.7030
    -6.7029  -6.6988  -6.6984  -6.6983  -4.7248  -4.7242  -4.7239  -4.6988
    -4.6982  -4.6979  -4.5176  -4.5171  -4.5170  -4.5075  -4.5070  -4.5069
    -0.3783  -0.3778  -0.3760  -0.3641  -0.3637  -0.3619   0.7911   0.7919
     0.7921   0.8147   0.8156   0.8158   2.1435   2.1440   2.1450   2.1592
     2.1597   2.1607   2.7405   2.7412   2.7412   2.7441   2.7447   2.7447
     4.3346   4.3347   4.3350   4.3539   4.3540   4.3543   5.0924   5.0933
     5.0935   5.0978   5.0984   5.0990   5.4368   5.4373   5.4375   5.4453
     5.4453   5.4459   9.5063   9.5065   9.5070   9.5241   9.5243   9.5248

          k = 0.3333 0.5773 0.0203 ( 51309 PWs)   bands (ev):

    -7.7197  -7.7192  -7.7187  -7.6774  -7.6770  -7.6763  -7.6554  -7.6549
    -7.6546  -7.6482  -7.6478  -7.6470  -7.5823  -7.5820  -7.5809  -7.4773
    -7.4769  -7.4763  -7.3936  -7.3931  -7.3926  -7.3905  -7.3902  -7.3900
    -7.3483  -7.3479  -7.3472  -7.1494  -7.1490  -7.1485  -7.1382  -7.1377
    -7.1373  -7.0786  -7.0782  -7.0779  -6.9824  -6.9819  -6.9818  -6.9319
    -6.9314  -6.9312  -6.8737  -6.8736  -6.8733  -6.8731  -6.8730  -6.8729
    -6.8684  -6.8679  -6.8679  -6.8363  -6.8358  -6.8358  -6.7034  -6.7030
    -6.7029  -6.6988  -6.6984  -6.6983  -4.7248  -4.7242  -4.7239  -4.6988
    -4.6982  -4.6979  -4.5176  -4.5171  -4.5170  -4.5075  -4.5070  -4.5069
    -0.3783  -0.3778  -0.3760  -0.3641  -0.3637  -0.3619   0.7911   0.7919
     0.7921   0.8147   0.8156   0.8158   2.1434   2.1440   2.1450   2.1591
     2.1596   2.1606   2.7407   2.7413   2.7414   2.7442   2.7448   2.7449
     4.3337   4.3337   4.3340   4.3531   4.3532   4.3535   5.0959   5.0970
     5.0970   5.1000   5.1008   5.1013   5.4354   5.4359   5.4362   5.4420
     5.4420   5.4427   9.5083   9.5084   9.5089   9.5261   9.5263   9.5268

          k = 0.3333 0.5773-0.0000 ( 51345 PWs)   bands (ev):

    -7.7197  -7.7192  -7.7187  -7.6774  -7.6770  -7.6763  -7.6554  -7.6549
    -7.6546  -7.6482  -7.6478  -7.6470  -7.5823  -7.5820  -7.5809  -7.4773
    -7.4769  -7.4763  -7.3936  -7.3931  -7.3926  -7.3905  -7.3902  -7.3900
    -7.3483  -7.3479  -7.3472  -7.1494  -7.1490  -7.1485  -7.1382  -7.1377
    -7.1373  -7.0786  -7.0782  -7.0779  -6.9824  -6.9819  -6.9818  -6.9319
    -6.9314  -6.9312  -6.8737  -6.8736  -6.8733  -6.8731  -6.8730  -6.8729
    -6.8684  -6.8679  -6.8679  -6.8363  -6.8358  -6.8358  -6.7034  -6.7030
    -6.7029  -6.6988  -6.6984  -6.6983  -4.7248  -4.7242  -4.7239  -4.6988
    -4.6982  -4.6979  -4.5176  -4.5171  -4.5170  -4.5075  -4.5070  -4.5069
    -0.3783  -0.3778  -0.3760  -0.3641  -0.3637  -0.3619   0.7911   0.7919
     0.7921   0.8147   0.8156   0.8158   2.1434   2.1439   2.1450   2.1590
     2.1596   2.1606   2.7408   2.7414   2.7414   2.7443   2.7449   2.7450
     4.3333   4.3334   4.3337   4.3528   4.3528   4.3531   5.0974   5.0985
     5.0988   5.1008   5.1018   5.1022   5.4349   5.4354   5.4358   5.4404
     5.4406   5.4413   9.5091   9.5092   9.5097   9.5270   9.5271   9.5276

     Writing output data file GaSgamma.save
 
     init_run     :      0.54s CPU      0.87s WALL (       1 calls)
     electrons    :   2089.24s CPU   2193.93s WALL (       1 calls)

     Called by init_run:
     wfcinit      :      0.00s CPU      0.00s WALL (       1 calls)
     wfcinit:atom :      0.35s CPU      0.55s WALL (     160 calls)
     wfcinit:wfcr :    105.02s CPU    109.01s WALL (     160 calls)
     potinit      :      0.08s CPU      0.13s WALL (       1 calls)

     Called by electrons:
     c_bands      :   2089.23s CPU   2193.93s WALL (       1 calls)
     v_of_rho     :      0.02s CPU      0.02s WALL (       1 calls)
     v_h          :      0.00s CPU      0.00s WALL (       1 calls)
     v_xc         :      0.02s CPU      0.02s WALL (       1 calls)

     Called by c_bands:
     init_us_2    :      0.27s CPU      0.30s WALL (     160 calls)
     cegterg      :   1962.82s CPU   2060.71s WALL (     361 calls)

     Called by sum_band:

     Called by *egterg:
     h_psi        :   1314.92s CPU   1356.78s WALL (    6720 calls)
     g_psi        :      6.42s CPU      6.37s WALL (    6199 calls)
     cdiaghg      :    326.08s CPU    358.28s WALL (    6359 calls)
     cegterg:over :    169.40s CPU    176.53s WALL (    6199 calls)
     cegterg:upda :    144.80s CPU    158.75s WALL (    6199 calls)
     cegterg:last :     77.20s CPU     80.05s WALL (    1001 calls)
     cdiaghg:chol :     14.86s CPU     14.86s WALL (    6359 calls)
     cdiaghg:inve :     14.61s CPU     14.73s WALL (    6359 calls)
     cdiaghg:para :     62.50s CPU     89.67s WALL (   12718 calls)

     Called by h_psi:
     h_psi:pot    :   1307.82s CPU   1349.64s WALL (    6720 calls)
     h_psi:calbec :     86.49s CPU     91.31s WALL (    6720 calls)
     vloc_psi     :   1133.42s CPU   1166.63s WALL (    6720 calls)
     add_vuspsi   :     87.86s CPU     91.66s WALL (    6720 calls)

     General routines
     calbec       :     86.48s CPU     91.30s WALL (    6720 calls)
     fft          :      0.02s CPU      0.02s WALL (      13 calls)
     fftw         :   1092.44s CPU   1125.07s WALL ( 1416392 calls)
     davcio       :      0.09s CPU      2.22s WALL (     160 calls)
 
     Parallel routines
     fft_scatter  :    570.69s CPU    579.82s WALL ( 1416405 calls)
 
     PWSCF        : 34m50.66s CPU    36m37.92s WALL

 
   This run was terminated on:  11:24:39   7Apr2022            

=------------------------------------------------------------------------------=
   JOB DONE.
=------------------------------------------------------------------------------=
