
     Program PWSCF v.6.1 (svn rev. 13369) starts on  7Apr2022 at 12:48:58 

     This program is part of the open-source Quantum ESPRESSO suite
     for quantum simulation of materials; please cite
         "P. Giannozzi et al., J. Phys.:Condens. Matter 21 395502 (2009);
          URL http://www.quantum-espresso.org", 
     in publications or presentations arising from this work. More details at
     http://www.quantum-espresso.org/quote

     Parallel version (MPI), running on    48 processors
     R & G space division:  proc/nbgrp/npool/nimage =      48
     Reading input from GaTegamma_band.in
Warning: card &IONS ignored
Warning: card / ignored
Warning: card &CELL ignored
Warning: card     CELL_DOFREE='ALL' ignored
Warning: card / ignored

     Current dimensions of program PWSCF are:
     Max number of different atomic species (ntypx) = 10
     Max number of k-points (npk) =  40000
     Max angular momentum in pseudopotentials (lmaxx) =  3

     Atomic positions and unit cell read from directory:
     /share/inl/marcel/TB-SO/GaTegamma_outdir/GaTegamma.save/
 

     IMPORTANT: XC functional enforced from input :
     Exchange-correlation      = SLA+PW+PSX+PSC ( 1  4 10  8 0 0)
     Any further DFT definition will be discarded
     Please, verify this is what you really want


     Subspace diagonalization in iterative solution of the eigenvalue problem:
     one sub-group per band group will be used
     scalapack distributed-memory algorithm (size of sub-group:  4*  4 procs)

 
     Parallelization info
     --------------------
     sticks:   dense  smooth     PW     G-vecs:    dense   smooth      PW
     Min          51      51     14                13187    13187    1872
     Max          52      52     15                13219    13219    1896
     Sum        2455    2455    673               633693   633693   90491
 


     bravais-lattice index     =            0
     lattice parameter (alat)  =       7.7111  a.u.
     unit-cell volume          =    2554.9996 (a.u.)^3
     number of atoms/cell      =           12
     number of atomic types    =            2
     number of electrons       =       174.00
     number of Kohn-Sham states=          120
     kinetic-energy cutoff     =     150.0000  Ry
     charge density cutoff     =     600.0000  Ry
     Exchange-correlation      = SLA+PW+PSX+PSC ( 1  4 10  8 0 0)
     Non magnetic calculation with spin-orbit


     celldm(1)=   7.711093  celldm(2)=   0.000000  celldm(3)=   0.000000
     celldm(4)=   0.000000  celldm(5)=   0.000000  celldm(6)=   0.000000

     crystal axes: (cart. coord. in units of alat)
               a(1) = (   1.000000   0.000000   0.000000 )  
               a(2) = (  -0.500000   0.866025   0.000000 )  
               a(3) = (   0.000000   0.000000   6.434464 )  

     reciprocal axes: (cart. coord. in units 2 pi/alat)
               b(1) = (  1.000000  0.577350 -0.000000 )  
               b(2) = (  0.000000  1.154701 -0.000000 )  
               b(3) = (  0.000000  0.000000  0.155413 )  


     PseudoPot. # 1 for Ga read from file:
     /home/mclaro/pseudo/ONCVPSP/sg15/Ga_ONCV_PBE_fr.upf
     MD5 check sum: 291fdaf421ec3a7833e0cf5917f67014
     Pseudo is Norm-conserving, Zval = 13.0
     Generated using ONCVPSP code by D. R. Hamann
     Using radial grid of 1926 points, 10 beta functions with: 
                l(1) =   0
                l(2) =   0
                l(3) =   1
                l(4) =   1
                l(5) =   1
                l(6) =   1
                l(7) =   2
                l(8) =   2
                l(9) =   2
               l(10) =   2

     PseudoPot. # 2 for Te read from file:
     /home/mclaro/pseudo/ONCVPSP/sg15/Te_ONCV_PBE_fr.upf
     MD5 check sum: fbe956063e00beff679dd20f3414d505
     Pseudo is Norm-conserving, Zval = 16.0
     Generated using ONCVPSP code by D. R. Hamann
     Using radial grid of 1324 points, 10 beta functions with: 
                l(1) =   0
                l(2) =   0
                l(3) =   1
                l(4) =   1
                l(5) =   1
                l(6) =   1
                l(7) =   2
                l(8) =   2
                l(9) =   2
               l(10) =   2

     atomic species   valence    mass     pseudopotential
        Ga            13.00    69.72300     Ga( 1.00)
        Te            16.00   127.60000     Te( 1.00)

      6 Sym. Ops. (no inversion) found


                                    s                        frac. trans.

      isym =  1     identity                                     

 cryst.   s( 1) = (     1          0          0      )
                  (     0          1          0      )
                  (     0          0          1      )

 cart.    s( 1) = (  1.0000000  0.0000000 -0.0000000 )
                  (  0.0000000  1.0000000 -0.0000000 )
                  (  0.0000000  0.0000000  1.0000000 )


      isym =  2     120 deg rotation - cryst. axis [0,0,1]       

 cryst.   s( 2) = (     0          1          0      )
                  (    -1         -1          0      )
                  (     0          0          1      )

 cart.    s( 2) = ( -0.5000000 -0.8660254  0.0000000 )
                  (  0.8660254 -0.5000000  0.0000000 )
                  (  0.0000000  0.0000000  1.0000000 )


      isym =  3     120 deg rotation - cryst. axis [0,0,-1]      

 cryst.   s( 3) = (    -1         -1          0      )
                  (     1          0          0      )
                  (     0          0          1      )

 cart.    s( 3) = ( -0.5000000  0.8660254  0.0000000 )
                  ( -0.8660254 -0.5000000  0.0000000 )
                  (  0.0000000  0.0000000  1.0000000 )


      isym =  4     inv. 180 deg rotation - cart. axis [1,0,0]   

 cryst.   s( 4) = (    -1          0          0      )
                  (     1          1          0      )
                  (     0          0          1      )

 cart.    s( 4) = ( -1.0000000 -0.0000000  0.0000000 )
                  (  0.0000000  1.0000000 -0.0000000 )
                  (  0.0000000  0.0000000  1.0000000 )


      isym =  5     inv. 180 deg rotation - cryst. axis [0,1,0]  

 cryst.   s( 5) = (     1          1          0      )
                  (     0         -1          0      )
                  (     0          0          1      )

 cart.    s( 5) = (  0.5000000  0.8660254 -0.0000000 )
                  (  0.8660254 -0.5000000  0.0000000 )
                  (  0.0000000  0.0000000  1.0000000 )


      isym =  6     inv. 180 deg rotation - cryst. axis [1,1,0]  

 cryst.   s( 6) = (     0         -1          0      )
                  (    -1          0          0      )
                  (     0          0          1      )

 cart.    s( 6) = (  0.5000000 -0.8660254  0.0000000 )
                  ( -0.8660254 -0.5000000  0.0000000 )
                  (  0.0000000  0.0000000  1.0000000 )


   Cartesian axes

     site n.     atom                  positions (alat units)
         1           Te  tau(   1) = (   0.0000000   0.0000000   1.5102917  )
         2           Te  tau(   2) = (  -0.0000000   0.5773503   0.6324782  )
         3           Te  tau(   3) = (   0.5000000   0.2886751   3.6558143  )
         4           Te  tau(   4) = (   0.0000000   0.0000000   2.7766336  )
         5           Te  tau(   5) = (  -0.0000000   0.5773503   5.8007384  )
         6           Te  tau(   6) = (   0.5000000   0.2886751   4.9221836  )
         7           Ga  tau(   7) = (   0.5000000   0.2886751   1.8326944  )
         8           Ga  tau(   8) = (   0.0000000   0.0000000   0.3093425  )
         9           Ga  tau(   9) = (  -0.0000000   0.5773503   3.9782367  )
        10           Ga  tau(  10) = (   0.5000000   0.2886751   2.4534483  )
        11           Ga  tau(  11) = (   0.0000000   0.0000000   6.1230817  )
        12           Ga  tau(  12) = (  -0.0000000   0.5773503   4.5989740  )

   Crystallographic axes

     site n.     atom                  positions (cryst. coord.)
         1           Te  tau(   1) = (  0.0000000  0.0000000  0.2347191  )
         2           Te  tau(   2) = (  0.3333333  0.6666667  0.0982954  )
         3           Te  tau(   3) = (  0.6666667  0.3333333  0.5681614  )
         4           Te  tau(   4) = (  0.0000000  0.0000000  0.4315252  )
         5           Te  tau(   5) = (  0.3333333  0.6666667  0.9015107  )
         6           Te  tau(   6) = (  0.6666667  0.3333333  0.7649718  )
         7           Ga  tau(   7) = (  0.6666667  0.3333333  0.2848247  )
         8           Ga  tau(   8) = (  0.0000000  0.0000000  0.0480759  )
         9           Ga  tau(   9) = (  0.3333333  0.6666667  0.6182701  )
        10           Ga  tau(  10) = (  0.6666667  0.3333333  0.3812980  )
        11           Ga  tau(  11) = (  0.0000000  0.0000000  0.9516071  )
        12           Ga  tau(  12) = (  0.3333333  0.6666667  0.7147408  )

     number of k points=   160
                       cart. coord. in units 2pi/alat
        k(    1) = (   0.0000000   0.0000000   0.0777065), wk =   0.0062500
        k(    2) = (   0.0000000   0.0213833   0.0777065), wk =   0.0062500
        k(    3) = (   0.0000000   0.0427667   0.0777065), wk =   0.0062500
        k(    4) = (   0.0000000   0.0641500   0.0777065), wk =   0.0062500
        k(    5) = (   0.0000000   0.0855334   0.0777065), wk =   0.0062500
        k(    6) = (   0.0000000   0.1069167   0.0777065), wk =   0.0062500
        k(    7) = (   0.0000000   0.1283001   0.0777065), wk =   0.0062500
        k(    8) = (   0.0000000   0.1496834   0.0777065), wk =   0.0062500
        k(    9) = (   0.0000000   0.1710667   0.0777065), wk =   0.0062500
        k(   10) = (   0.0000000   0.1924501   0.0777065), wk =   0.0062500
        k(   11) = (   0.0000000   0.2138334   0.0777065), wk =   0.0062500
        k(   12) = (   0.0000000   0.2352168   0.0777065), wk =   0.0062500
        k(   13) = (   0.0000000   0.2566001   0.0777065), wk =   0.0062500
        k(   14) = (   0.0000000   0.2779835   0.0777065), wk =   0.0062500
        k(   15) = (   0.0000000   0.2993668   0.0777065), wk =   0.0062500
        k(   16) = (   0.0000000   0.3207501   0.0777065), wk =   0.0062500
        k(   17) = (   0.0000000   0.3421335   0.0777065), wk =   0.0062500
        k(   18) = (   0.0000000   0.3635168   0.0777065), wk =   0.0062500
        k(   19) = (   0.0000000   0.3849002   0.0777065), wk =   0.0062500
        k(   20) = (   0.0000000   0.4062835   0.0777065), wk =   0.0062500
        k(   21) = (   0.0000000   0.4276669   0.0777065), wk =   0.0062500
        k(   22) = (   0.0000000   0.4490502   0.0777065), wk =   0.0062500
        k(   23) = (   0.0000000   0.4704336   0.0777065), wk =   0.0062500
        k(   24) = (   0.0000000   0.4918169   0.0777065), wk =   0.0062500
        k(   25) = (   0.0000000   0.5132002   0.0777065), wk =   0.0062500
        k(   26) = (   0.0000000   0.5345836   0.0777065), wk =   0.0062500
        k(   27) = (   0.0000000   0.5559669   0.0777065), wk =   0.0062500
        k(   28) = (   0.0000000   0.5773503   0.0777065), wk =   0.0062500
        k(   29) = (   0.0222220   0.5773499   0.0777065), wk =   0.0062500
        k(   30) = (   0.0444440   0.5773495   0.0777065), wk =   0.0062500
        k(   31) = (   0.0666660   0.5773491   0.0777065), wk =   0.0062500
        k(   32) = (   0.0888880   0.5773487   0.0777065), wk =   0.0062500
        k(   33) = (   0.1111100   0.5773483   0.0777065), wk =   0.0062500
        k(   34) = (   0.1333320   0.5773480   0.0777065), wk =   0.0062500
        k(   35) = (   0.1555540   0.5773476   0.0777065), wk =   0.0062500
        k(   36) = (   0.1777760   0.5773472   0.0777065), wk =   0.0062500
        k(   37) = (   0.1999980   0.5773468   0.0777065), wk =   0.0062500
        k(   38) = (   0.2222200   0.5773464   0.0777065), wk =   0.0062500
        k(   39) = (   0.2444420   0.5773460   0.0777065), wk =   0.0062500
        k(   40) = (   0.2666640   0.5773457   0.0777065), wk =   0.0062500
        k(   41) = (   0.2888860   0.5773453   0.0777065), wk =   0.0062500
        k(   42) = (   0.3111080   0.5773449   0.0777065), wk =   0.0062500
        k(   43) = (   0.3333300   0.5773445   0.0777065), wk =   0.0062500
        k(   44) = (   0.3225774   0.5587205   0.0777065), wk =   0.0062500
        k(   45) = (   0.3118248   0.5400965   0.0777065), wk =   0.0062500
        k(   46) = (   0.3010723   0.5214724   0.0777065), wk =   0.0062500
        k(   47) = (   0.2903197   0.5028484   0.0777065), wk =   0.0062500
        k(   48) = (   0.2795671   0.4842244   0.0777065), wk =   0.0062500
        k(   49) = (   0.2688145   0.4656004   0.0777065), wk =   0.0062500
        k(   50) = (   0.2580619   0.4469764   0.0777065), wk =   0.0062500
        k(   51) = (   0.2473094   0.4283524   0.0777065), wk =   0.0062500
        k(   52) = (   0.2365568   0.4097284   0.0777065), wk =   0.0062500
        k(   53) = (   0.2258042   0.3911043   0.0777065), wk =   0.0062500
        k(   54) = (   0.2150516   0.3724803   0.0777065), wk =   0.0062500
        k(   55) = (   0.2042990   0.3538563   0.0777065), wk =   0.0062500
        k(   56) = (   0.1935465   0.3352323   0.0777065), wk =   0.0062500
        k(   57) = (   0.1827939   0.3166083   0.0777065), wk =   0.0062500
        k(   58) = (   0.1720413   0.2979843   0.0777065), wk =   0.0062500
        k(   59) = (   0.1612887   0.2793602   0.0777065), wk =   0.0062500
        k(   60) = (   0.1505361   0.2607362   0.0777065), wk =   0.0062500
        k(   61) = (   0.1397835   0.2421122   0.0777065), wk =   0.0062500
        k(   62) = (   0.1290310   0.2234882   0.0777065), wk =   0.0062500
        k(   63) = (   0.1182784   0.2048642   0.0777065), wk =   0.0062500
        k(   64) = (   0.1075258   0.1862402   0.0777065), wk =   0.0062500
        k(   65) = (   0.0967732   0.1676161   0.0777065), wk =   0.0062500
        k(   66) = (   0.0860206   0.1489921   0.0777065), wk =   0.0062500
        k(   67) = (   0.0752681   0.1303681   0.0777065), wk =   0.0062500
        k(   68) = (   0.0645155   0.1117441   0.0777065), wk =   0.0062500
        k(   69) = (   0.0537629   0.0931201   0.0777065), wk =   0.0062500
        k(   70) = (   0.0430103   0.0744961   0.0777065), wk =   0.0062500
        k(   71) = (   0.0322577   0.0558720   0.0777065), wk =   0.0062500
        k(   72) = (   0.0215052   0.0372480   0.0777065), wk =   0.0062500
        k(   73) = (   0.0107526   0.0186240   0.0777065), wk =   0.0062500
        k(   74) = (   0.0000000   0.0000000   0.0777065), wk =   0.0062500
        k(   75) = (   0.0000000   0.0000000   0.0518044), wk =   0.0062500
        k(   76) = (   0.0000000   0.0000000   0.0259022), wk =   0.0062500
        k(   77) = (   0.0000000   0.0000000   0.0000000), wk =   0.0062500
        k(   78) = (   0.0000000   0.0213833  -0.0000000), wk =   0.0062500
        k(   79) = (   0.0000000   0.0427667  -0.0000000), wk =   0.0062500
        k(   80) = (   0.0000000   0.0641500  -0.0000000), wk =   0.0062500
        k(   81) = (   0.0000000   0.0855334  -0.0000000), wk =   0.0062500
        k(   82) = (   0.0000000   0.1069167  -0.0000000), wk =   0.0062500
        k(   83) = (   0.0000000   0.1283001  -0.0000000), wk =   0.0062500
        k(   84) = (   0.0000000   0.1496834  -0.0000000), wk =   0.0062500
        k(   85) = (   0.0000000   0.1710667  -0.0000000), wk =   0.0062500
        k(   86) = (   0.0000000   0.1924501  -0.0000000), wk =   0.0062500
        k(   87) = (   0.0000000   0.2138334  -0.0000000), wk =   0.0062500
        k(   88) = (   0.0000000   0.2352168  -0.0000000), wk =   0.0062500
        k(   89) = (   0.0000000   0.2566001  -0.0000000), wk =   0.0062500
        k(   90) = (   0.0000000   0.2779835  -0.0000000), wk =   0.0062500
        k(   91) = (   0.0000000   0.2993668  -0.0000000), wk =   0.0062500
        k(   92) = (   0.0000000   0.3207501  -0.0000000), wk =   0.0062500
        k(   93) = (   0.0000000   0.3421335  -0.0000000), wk =   0.0062500
        k(   94) = (   0.0000000   0.3635168  -0.0000000), wk =   0.0062500
        k(   95) = (   0.0000000   0.3849002  -0.0000000), wk =   0.0062500
        k(   96) = (   0.0000000   0.4062835  -0.0000000), wk =   0.0062500
        k(   97) = (   0.0000000   0.4276669  -0.0000000), wk =   0.0062500
        k(   98) = (   0.0000000   0.4490502  -0.0000000), wk =   0.0062500
        k(   99) = (   0.0000000   0.4704336  -0.0000000), wk =   0.0062500
        k(  100) = (   0.0000000   0.4918169  -0.0000000), wk =   0.0062500
        k(  101) = (   0.0000000   0.5132002  -0.0000000), wk =   0.0062500
        k(  102) = (   0.0000000   0.5345836  -0.0000000), wk =   0.0062500
        k(  103) = (   0.0000000   0.5559669  -0.0000000), wk =   0.0062500
        k(  104) = (   0.0000000   0.5773503  -0.0000000), wk =   0.0062500
        k(  105) = (   0.0222220   0.5773499  -0.0000000), wk =   0.0062500
        k(  106) = (   0.0444440   0.5773495  -0.0000000), wk =   0.0062500
        k(  107) = (   0.0666660   0.5773491  -0.0000000), wk =   0.0062500
        k(  108) = (   0.0888880   0.5773487  -0.0000000), wk =   0.0062500
        k(  109) = (   0.1111100   0.5773483  -0.0000000), wk =   0.0062500
        k(  110) = (   0.1333320   0.5773480  -0.0000000), wk =   0.0062500
        k(  111) = (   0.1555540   0.5773476  -0.0000000), wk =   0.0062500
        k(  112) = (   0.1777760   0.5773472  -0.0000000), wk =   0.0062500
        k(  113) = (   0.1999980   0.5773468  -0.0000000), wk =   0.0062500
        k(  114) = (   0.2222200   0.5773464  -0.0000000), wk =   0.0062500
        k(  115) = (   0.2444420   0.5773460  -0.0000000), wk =   0.0062500
        k(  116) = (   0.2666640   0.5773457  -0.0000000), wk =   0.0062500
        k(  117) = (   0.2888860   0.5773453  -0.0000000), wk =   0.0062500
        k(  118) = (   0.3111080   0.5773449  -0.0000000), wk =   0.0062500
        k(  119) = (   0.3333300   0.5773445  -0.0000000), wk =   0.0062500
        k(  120) = (   0.3225774   0.5587205  -0.0000000), wk =   0.0062500
        k(  121) = (   0.3118248   0.5400965  -0.0000000), wk =   0.0062500
        k(  122) = (   0.3010723   0.5214724  -0.0000000), wk =   0.0062500
        k(  123) = (   0.2903197   0.5028484  -0.0000000), wk =   0.0062500
        k(  124) = (   0.2795671   0.4842244  -0.0000000), wk =   0.0062500
        k(  125) = (   0.2688145   0.4656004  -0.0000000), wk =   0.0062500
        k(  126) = (   0.2580619   0.4469764  -0.0000000), wk =   0.0062500
        k(  127) = (   0.2473094   0.4283524  -0.0000000), wk =   0.0062500
        k(  128) = (   0.2365568   0.4097284  -0.0000000), wk =   0.0062500
        k(  129) = (   0.2258042   0.3911043  -0.0000000), wk =   0.0062500
        k(  130) = (   0.2150516   0.3724803  -0.0000000), wk =   0.0062500
        k(  131) = (   0.2042990   0.3538563  -0.0000000), wk =   0.0062500
        k(  132) = (   0.1935465   0.3352323  -0.0000000), wk =   0.0062500
        k(  133) = (   0.1827939   0.3166083  -0.0000000), wk =   0.0062500
        k(  134) = (   0.1720413   0.2979843  -0.0000000), wk =   0.0062500
        k(  135) = (   0.1612887   0.2793602  -0.0000000), wk =   0.0062500
        k(  136) = (   0.1505361   0.2607362  -0.0000000), wk =   0.0062500
        k(  137) = (   0.1397835   0.2421122  -0.0000000), wk =   0.0062500
        k(  138) = (   0.1290310   0.2234882  -0.0000000), wk =   0.0062500
        k(  139) = (   0.1182784   0.2048642  -0.0000000), wk =   0.0062500
        k(  140) = (   0.1075258   0.1862402  -0.0000000), wk =   0.0062500
        k(  141) = (   0.0967732   0.1676161  -0.0000000), wk =   0.0062500
        k(  142) = (   0.0860206   0.1489921  -0.0000000), wk =   0.0062500
        k(  143) = (   0.0752681   0.1303681  -0.0000000), wk =   0.0062500
        k(  144) = (   0.0645155   0.1117441  -0.0000000), wk =   0.0062500
        k(  145) = (   0.0537629   0.0931201  -0.0000000), wk =   0.0062500
        k(  146) = (   0.0430103   0.0744961  -0.0000000), wk =   0.0062500
        k(  147) = (   0.0322577   0.0558720  -0.0000000), wk =   0.0062500
        k(  148) = (   0.0215052   0.0372480  -0.0000000), wk =   0.0062500
        k(  149) = (   0.0107526   0.0186240  -0.0000000), wk =   0.0062500
        k(  150) = (   0.0000000   0.0000000   0.0000000), wk =   0.0062500
        k(  151) = (   0.0000000   0.5773503   0.0777065), wk =   0.0062500
        k(  152) = (   0.0000000   0.5773503   0.0582799), wk =   0.0062500
        k(  153) = (   0.0000000   0.5773503   0.0388533), wk =   0.0062500
        k(  154) = (   0.0000000   0.5773503   0.0194266), wk =   0.0062500
        k(  155) = (   0.0000000   0.5773503  -0.0000000), wk =   0.0062500
        k(  156) = (   0.3333300   0.5773445   0.0777065), wk =   0.0062500
        k(  157) = (   0.3333300   0.5773445   0.0582799), wk =   0.0062500
        k(  158) = (   0.3333300   0.5773445   0.0388533), wk =   0.0062500
        k(  159) = (   0.3333300   0.5773445   0.0194266), wk =   0.0062500
        k(  160) = (   0.3333300   0.5773445  -0.0000000), wk =   0.0062500

                       cryst. coord.
        k(    1) = (   0.0000000   0.0000000   0.5000000), wk =   0.0062500
        k(    2) = (   0.0000000   0.0185185   0.5000000), wk =   0.0062500
        k(    3) = (   0.0000000   0.0370370   0.5000000), wk =   0.0062500
        k(    4) = (   0.0000000   0.0555556   0.5000000), wk =   0.0062500
        k(    5) = (   0.0000000   0.0740741   0.5000000), wk =   0.0062500
        k(    6) = (   0.0000000   0.0925926   0.5000000), wk =   0.0062500
        k(    7) = (   0.0000000   0.1111111   0.5000000), wk =   0.0062500
        k(    8) = (   0.0000000   0.1296296   0.5000000), wk =   0.0062500
        k(    9) = (   0.0000000   0.1481481   0.5000000), wk =   0.0062500
        k(   10) = (   0.0000000   0.1666667   0.5000000), wk =   0.0062500
        k(   11) = (   0.0000000   0.1851852   0.5000000), wk =   0.0062500
        k(   12) = (   0.0000000   0.2037037   0.5000000), wk =   0.0062500
        k(   13) = (   0.0000000   0.2222222   0.5000000), wk =   0.0062500
        k(   14) = (   0.0000000   0.2407407   0.5000000), wk =   0.0062500
        k(   15) = (   0.0000000   0.2592593   0.5000000), wk =   0.0062500
        k(   16) = (   0.0000000   0.2777778   0.5000000), wk =   0.0062500
        k(   17) = (   0.0000000   0.2962963   0.5000000), wk =   0.0062500
        k(   18) = (   0.0000000   0.3148148   0.5000000), wk =   0.0062500
        k(   19) = (   0.0000000   0.3333333   0.5000000), wk =   0.0062500
        k(   20) = (   0.0000000   0.3518519   0.5000000), wk =   0.0062500
        k(   21) = (   0.0000000   0.3703704   0.5000000), wk =   0.0062500
        k(   22) = (   0.0000000   0.3888889   0.5000000), wk =   0.0062500
        k(   23) = (   0.0000000   0.4074074   0.5000000), wk =   0.0062500
        k(   24) = (   0.0000000   0.4259259   0.5000000), wk =   0.0062500
        k(   25) = (   0.0000000   0.4444444   0.5000000), wk =   0.0062500
        k(   26) = (   0.0000000   0.4629630   0.5000000), wk =   0.0062500
        k(   27) = (   0.0000000   0.4814815   0.5000000), wk =   0.0062500
        k(   28) = (   0.0000000   0.5000000   0.5000000), wk =   0.0062500
        k(   29) = (   0.0222220   0.4888887   0.5000000), wk =   0.0062500
        k(   30) = (   0.0444440   0.4777773   0.5000000), wk =   0.0062500
        k(   31) = (   0.0666660   0.4666660   0.5000000), wk =   0.0062500
        k(   32) = (   0.0888880   0.4555547   0.5000000), wk =   0.0062500
        k(   33) = (   0.1111100   0.4444433   0.5000000), wk =   0.0062500
        k(   34) = (   0.1333320   0.4333320   0.5000000), wk =   0.0062500
        k(   35) = (   0.1555540   0.4222207   0.5000000), wk =   0.0062500
        k(   36) = (   0.1777760   0.4111093   0.5000000), wk =   0.0062500
        k(   37) = (   0.1999980   0.3999980   0.5000000), wk =   0.0062500
        k(   38) = (   0.2222200   0.3888867   0.5000000), wk =   0.0062500
        k(   39) = (   0.2444420   0.3777753   0.5000000), wk =   0.0062500
        k(   40) = (   0.2666640   0.3666640   0.5000000), wk =   0.0062500
        k(   41) = (   0.2888860   0.3555527   0.5000000), wk =   0.0062500
        k(   42) = (   0.3111080   0.3444413   0.5000000), wk =   0.0062500
        k(   43) = (   0.3333300   0.3333300   0.5000000), wk =   0.0062500
        k(   44) = (   0.3225774   0.3225774   0.5000000), wk =   0.0062500
        k(   45) = (   0.3118248   0.3118248   0.5000000), wk =   0.0062500
        k(   46) = (   0.3010723   0.3010723   0.5000000), wk =   0.0062500
        k(   47) = (   0.2903197   0.2903197   0.5000000), wk =   0.0062500
        k(   48) = (   0.2795671   0.2795671   0.5000000), wk =   0.0062500
        k(   49) = (   0.2688145   0.2688145   0.5000000), wk =   0.0062500
        k(   50) = (   0.2580619   0.2580619   0.5000000), wk =   0.0062500
        k(   51) = (   0.2473094   0.2473094   0.5000000), wk =   0.0062500
        k(   52) = (   0.2365568   0.2365568   0.5000000), wk =   0.0062500
        k(   53) = (   0.2258042   0.2258042   0.5000000), wk =   0.0062500
        k(   54) = (   0.2150516   0.2150516   0.5000000), wk =   0.0062500
        k(   55) = (   0.2042990   0.2042990   0.5000000), wk =   0.0062500
        k(   56) = (   0.1935465   0.1935465   0.5000000), wk =   0.0062500
        k(   57) = (   0.1827939   0.1827939   0.5000000), wk =   0.0062500
        k(   58) = (   0.1720413   0.1720413   0.5000000), wk =   0.0062500
        k(   59) = (   0.1612887   0.1612887   0.5000000), wk =   0.0062500
        k(   60) = (   0.1505361   0.1505361   0.5000000), wk =   0.0062500
        k(   61) = (   0.1397835   0.1397835   0.5000000), wk =   0.0062500
        k(   62) = (   0.1290310   0.1290310   0.5000000), wk =   0.0062500
        k(   63) = (   0.1182784   0.1182784   0.5000000), wk =   0.0062500
        k(   64) = (   0.1075258   0.1075258   0.5000000), wk =   0.0062500
        k(   65) = (   0.0967732   0.0967732   0.5000000), wk =   0.0062500
        k(   66) = (   0.0860206   0.0860206   0.5000000), wk =   0.0062500
        k(   67) = (   0.0752681   0.0752681   0.5000000), wk =   0.0062500
        k(   68) = (   0.0645155   0.0645155   0.5000000), wk =   0.0062500
        k(   69) = (   0.0537629   0.0537629   0.5000000), wk =   0.0062500
        k(   70) = (   0.0430103   0.0430103   0.5000000), wk =   0.0062500
        k(   71) = (   0.0322577   0.0322577   0.5000000), wk =   0.0062500
        k(   72) = (   0.0215052   0.0215052   0.5000000), wk =   0.0062500
        k(   73) = (   0.0107526   0.0107526   0.5000000), wk =   0.0062500
        k(   74) = (   0.0000000   0.0000000   0.5000000), wk =   0.0062500
        k(   75) = (   0.0000000   0.0000000   0.3333333), wk =   0.0062500
        k(   76) = (   0.0000000   0.0000000   0.1666667), wk =   0.0062500
        k(   77) = (   0.0000000   0.0000000   0.0000000), wk =   0.0062500
        k(   78) = (   0.0000000   0.0185185  -0.0000000), wk =   0.0062500
        k(   79) = (   0.0000000   0.0370370  -0.0000000), wk =   0.0062500
        k(   80) = (   0.0000000   0.0555556  -0.0000000), wk =   0.0062500
        k(   81) = (   0.0000000   0.0740741   0.0000000), wk =   0.0062500
        k(   82) = (   0.0000000   0.0925926  -0.0000000), wk =   0.0062500
        k(   83) = (   0.0000000   0.1111111   0.0000000), wk =   0.0062500
        k(   84) = (   0.0000000   0.1296296   0.0000000), wk =   0.0062500
        k(   85) = (   0.0000000   0.1481481   0.0000000), wk =   0.0062500
        k(   86) = (   0.0000000   0.1666667  -0.0000000), wk =   0.0062500
        k(   87) = (   0.0000000   0.1851852  -0.0000000), wk =   0.0062500
        k(   88) = (   0.0000000   0.2037037   0.0000000), wk =   0.0062500
        k(   89) = (   0.0000000   0.2222222   0.0000000), wk =   0.0062500
        k(   90) = (   0.0000000   0.2407407   0.0000000), wk =   0.0062500
        k(   91) = (   0.0000000   0.2592593  -0.0000000), wk =   0.0062500
        k(   92) = (   0.0000000   0.2777778   0.0000000), wk =   0.0062500
        k(   93) = (   0.0000000   0.2962963   0.0000000), wk =   0.0062500
        k(   94) = (   0.0000000   0.3148148   0.0000000), wk =   0.0062500
        k(   95) = (   0.0000000   0.3333333   0.0000000), wk =   0.0062500
        k(   96) = (   0.0000000   0.3518519  -0.0000000), wk =   0.0062500
        k(   97) = (   0.0000000   0.3703704  -0.0000000), wk =   0.0062500
        k(   98) = (   0.0000000   0.3888889   0.0000000), wk =   0.0062500
        k(   99) = (   0.0000000   0.4074074   0.0000000), wk =   0.0062500
        k(  100) = (   0.0000000   0.4259259   0.0000000), wk =   0.0062500
        k(  101) = (   0.0000000   0.4444444   0.0000000), wk =   0.0062500
        k(  102) = (   0.0000000   0.4629630  -0.0000000), wk =   0.0062500
        k(  103) = (   0.0000000   0.4814815   0.0000000), wk =   0.0062500
        k(  104) = (   0.0000000   0.5000000   0.0000000), wk =   0.0062500
        k(  105) = (   0.0222220   0.4888887   0.0000000), wk =   0.0062500
        k(  106) = (   0.0444440   0.4777773   0.0000000), wk =   0.0062500
        k(  107) = (   0.0666660   0.4666660  -0.0000000), wk =   0.0062500
        k(  108) = (   0.0888880   0.4555547   0.0000000), wk =   0.0062500
        k(  109) = (   0.1111100   0.4444433   0.0000000), wk =   0.0062500
        k(  110) = (   0.1333320   0.4333320   0.0000000), wk =   0.0062500
        k(  111) = (   0.1555540   0.4222207   0.0000000), wk =   0.0062500
        k(  112) = (   0.1777760   0.4111093   0.0000000), wk =   0.0062500
        k(  113) = (   0.1999980   0.3999980   0.0000000), wk =   0.0062500
        k(  114) = (   0.2222200   0.3888867   0.0000000), wk =   0.0062500
        k(  115) = (   0.2444420   0.3777753   0.0000000), wk =   0.0062500
        k(  116) = (   0.2666640   0.3666640   0.0000000), wk =   0.0062500
        k(  117) = (   0.2888860   0.3555527  -0.0000000), wk =   0.0062500
        k(  118) = (   0.3111080   0.3444413  -0.0000000), wk =   0.0062500
        k(  119) = (   0.3333300   0.3333300   0.0000000), wk =   0.0062500
        k(  120) = (   0.3225774   0.3225774  -0.0000000), wk =   0.0062500
        k(  121) = (   0.3118248   0.3118248  -0.0000000), wk =   0.0062500
        k(  122) = (   0.3010723   0.3010723   0.0000000), wk =   0.0062500
        k(  123) = (   0.2903197   0.2903197   0.0000000), wk =   0.0062500
        k(  124) = (   0.2795671   0.2795671  -0.0000000), wk =   0.0062500
        k(  125) = (   0.2688145   0.2688145   0.0000000), wk =   0.0062500
        k(  126) = (   0.2580619   0.2580619  -0.0000000), wk =   0.0062500
        k(  127) = (   0.2473094   0.2473094   0.0000000), wk =   0.0062500
        k(  128) = (   0.2365568   0.2365568   0.0000000), wk =   0.0062500
        k(  129) = (   0.2258042   0.2258042   0.0000000), wk =   0.0062500
        k(  130) = (   0.2150516   0.2150516   0.0000000), wk =   0.0062500
        k(  131) = (   0.2042990   0.2042990   0.0000000), wk =   0.0062500
        k(  132) = (   0.1935465   0.1935465   0.0000000), wk =   0.0062500
        k(  133) = (   0.1827939   0.1827939   0.0000000), wk =   0.0062500
        k(  134) = (   0.1720413   0.1720413  -0.0000000), wk =   0.0062500
        k(  135) = (   0.1612887   0.1612887  -0.0000000), wk =   0.0062500
        k(  136) = (   0.1505361   0.1505361  -0.0000000), wk =   0.0062500
        k(  137) = (   0.1397835   0.1397835  -0.0000000), wk =   0.0062500
        k(  138) = (   0.1290310   0.1290310   0.0000000), wk =   0.0062500
        k(  139) = (   0.1182784   0.1182784   0.0000000), wk =   0.0062500
        k(  140) = (   0.1075258   0.1075258   0.0000000), wk =   0.0062500
        k(  141) = (   0.0967732   0.0967732   0.0000000), wk =   0.0062500
        k(  142) = (   0.0860206   0.0860206   0.0000000), wk =   0.0062500
        k(  143) = (   0.0752681   0.0752681  -0.0000000), wk =   0.0062500
        k(  144) = (   0.0645155   0.0645155   0.0000000), wk =   0.0062500
        k(  145) = (   0.0537629   0.0537629   0.0000000), wk =   0.0062500
        k(  146) = (   0.0430103   0.0430103   0.0000000), wk =   0.0062500
        k(  147) = (   0.0322577   0.0322577   0.0000000), wk =   0.0062500
        k(  148) = (   0.0215052   0.0215052   0.0000000), wk =   0.0062500
        k(  149) = (   0.0107526   0.0107526  -0.0000000), wk =   0.0062500
        k(  150) = (   0.0000000   0.0000000   0.0000000), wk =   0.0062500
        k(  151) = (   0.0000000   0.5000000   0.5000000), wk =   0.0062500
        k(  152) = (   0.0000000   0.5000000   0.3750000), wk =   0.0062500
        k(  153) = (   0.0000000   0.5000000   0.2500000), wk =   0.0062500
        k(  154) = (   0.0000000   0.5000000   0.1250000), wk =   0.0062500
        k(  155) = (   0.0000000   0.5000000   0.0000000), wk =   0.0062500
        k(  156) = (   0.3333300   0.3333300   0.5000000), wk =   0.0062500
        k(  157) = (   0.3333300   0.3333300   0.3750000), wk =   0.0062500
        k(  158) = (   0.3333300   0.3333300   0.2500000), wk =   0.0062500
        k(  159) = (   0.3333300   0.3333300   0.1250000), wk =   0.0062500
        k(  160) = (   0.3333300   0.3333300   0.0000000), wk =   0.0062500

     Dense  grid:   633693 G-vectors     FFT dimensions: (  64,  64, 400)

     Estimated max dynamical RAM per process >      51.95MB

     Estimated total allocated dynamical RAM >    2493.46MB

     The potential is recalculated from file :
     /share/inl/marcel/TB-SO/GaTegamma_outdir/GaTegamma.save/charge-density.dat

     Starting wfc are  216 randomized atomic wfcs

     Band Structure Calculation
     Davidson diagonalization with overlap

     Computing kpt #:     1
     total cpu time spent up to now is       15.4 secs

     Computing kpt #:     2
     total cpu time spent up to now is       28.9 secs

     Computing kpt #:     3
     total cpu time spent up to now is       42.7 secs

     Computing kpt #:     4
     total cpu time spent up to now is       56.5 secs

     Computing kpt #:     5
     total cpu time spent up to now is       70.5 secs

     Computing kpt #:     6
     total cpu time spent up to now is       84.4 secs

     Computing kpt #:     7
     total cpu time spent up to now is       98.2 secs

     Computing kpt #:     8
     total cpu time spent up to now is      111.5 secs

     Computing kpt #:     9
     total cpu time spent up to now is      125.1 secs

     Computing kpt #:    10
     total cpu time spent up to now is      138.5 secs

     Computing kpt #:    11
     total cpu time spent up to now is      152.6 secs

     Computing kpt #:    12
     total cpu time spent up to now is      166.0 secs

     Computing kpt #:    13
     total cpu time spent up to now is      179.4 secs

     Computing kpt #:    14
     total cpu time spent up to now is      193.1 secs

     Computing kpt #:    15
     total cpu time spent up to now is      206.6 secs

     Computing kpt #:    16
     total cpu time spent up to now is      220.2 secs

     Computing kpt #:    17
     total cpu time spent up to now is      233.8 secs

     Computing kpt #:    18
     total cpu time spent up to now is      247.5 secs

     Computing kpt #:    19
     total cpu time spent up to now is      261.6 secs

     Computing kpt #:    20
     total cpu time spent up to now is      275.2 secs

     Computing kpt #:    21
     total cpu time spent up to now is      289.0 secs

     Computing kpt #:    22
     total cpu time spent up to now is      303.0 secs

     Computing kpt #:    23
     total cpu time spent up to now is      316.9 secs

     Computing kpt #:    24
     total cpu time spent up to now is      330.9 secs

     Computing kpt #:    25
     total cpu time spent up to now is      346.3 secs

     Computing kpt #:    26
     total cpu time spent up to now is      360.1 secs

     Computing kpt #:    27
     total cpu time spent up to now is      373.6 secs

     Computing kpt #:    28
     total cpu time spent up to now is      387.1 secs

     Computing kpt #:    29
     total cpu time spent up to now is      400.5 secs

     Computing kpt #:    30
     total cpu time spent up to now is      414.0 secs

     Computing kpt #:    31
     total cpu time spent up to now is      427.4 secs

     Computing kpt #:    32
     total cpu time spent up to now is      441.5 secs

     Computing kpt #:    33
     total cpu time spent up to now is      454.9 secs

     Computing kpt #:    34
     total cpu time spent up to now is      468.9 secs

     Computing kpt #:    35
     total cpu time spent up to now is      482.4 secs

     Computing kpt #:    36
     total cpu time spent up to now is      496.0 secs

     Computing kpt #:    37
     total cpu time spent up to now is      511.0 secs

     Computing kpt #:    38
     total cpu time spent up to now is      524.5 secs

     Computing kpt #:    39
     total cpu time spent up to now is      538.1 secs

     Computing kpt #:    40
     total cpu time spent up to now is      551.7 secs

     Computing kpt #:    41
     total cpu time spent up to now is      565.3 secs

     Computing kpt #:    42
     total cpu time spent up to now is      578.8 secs

     Computing kpt #:    43
     total cpu time spent up to now is      592.2 secs

     Computing kpt #:    44
     total cpu time spent up to now is      605.8 secs

     Computing kpt #:    45
     total cpu time spent up to now is      619.5 secs

     Computing kpt #:    46
     total cpu time spent up to now is      633.0 secs

     Computing kpt #:    47
     total cpu time spent up to now is      646.4 secs

     Computing kpt #:    48
     total cpu time spent up to now is      660.0 secs

     Computing kpt #:    49
     total cpu time spent up to now is      673.4 secs

     Computing kpt #:    50
     total cpu time spent up to now is      686.9 secs

     Computing kpt #:    51
     total cpu time spent up to now is      700.3 secs

     Computing kpt #:    52
     total cpu time spent up to now is      713.9 secs

     Computing kpt #:    53
     total cpu time spent up to now is      727.4 secs

     Computing kpt #:    54
     total cpu time spent up to now is      741.1 secs

     Computing kpt #:    55
     total cpu time spent up to now is      754.8 secs

     Computing kpt #:    56
     total cpu time spent up to now is      768.5 secs

     Computing kpt #:    57
     total cpu time spent up to now is      782.1 secs

     Computing kpt #:    58
     total cpu time spent up to now is      796.0 secs

     Computing kpt #:    59
     total cpu time spent up to now is      809.9 secs

     Computing kpt #:    60
     total cpu time spent up to now is      823.8 secs

     Computing kpt #:    61
     total cpu time spent up to now is      837.4 secs

     Computing kpt #:    62
     total cpu time spent up to now is      851.1 secs

     Computing kpt #:    63
     total cpu time spent up to now is      864.7 secs

     Computing kpt #:    64
     total cpu time spent up to now is      878.6 secs

     Computing kpt #:    65
     total cpu time spent up to now is      892.2 secs

     Computing kpt #:    66
     total cpu time spent up to now is      906.1 secs

     Computing kpt #:    67
     total cpu time spent up to now is      920.0 secs

     Computing kpt #:    68
     total cpu time spent up to now is      933.8 secs

     Computing kpt #:    69
     total cpu time spent up to now is      947.9 secs

     Computing kpt #:    70
     total cpu time spent up to now is      961.8 secs

     Computing kpt #:    71
     total cpu time spent up to now is      976.1 secs

     Computing kpt #:    72
     total cpu time spent up to now is      990.1 secs

     Computing kpt #:    73
     total cpu time spent up to now is     1004.4 secs

     Computing kpt #:    74
     total cpu time spent up to now is     1018.4 secs

     Computing kpt #:    75
     total cpu time spent up to now is     1032.7 secs

     Computing kpt #:    76
     total cpu time spent up to now is     1046.9 secs

     Computing kpt #:    77
     total cpu time spent up to now is     1060.8 secs

     Computing kpt #:    78
     total cpu time spent up to now is     1074.8 secs

     Computing kpt #:    79
     total cpu time spent up to now is     1089.0 secs

     Computing kpt #:    80
     total cpu time spent up to now is     1103.1 secs

     Computing kpt #:    81
     total cpu time spent up to now is     1117.1 secs

     Computing kpt #:    82
     total cpu time spent up to now is     1131.2 secs

     Computing kpt #:    83
     total cpu time spent up to now is     1145.1 secs

     Computing kpt #:    84
     total cpu time spent up to now is     1159.0 secs

     Computing kpt #:    85
     total cpu time spent up to now is     1172.9 secs

     Computing kpt #:    86
     total cpu time spent up to now is     1186.8 secs

     Computing kpt #:    87
     total cpu time spent up to now is     1200.6 secs

     Computing kpt #:    88
     total cpu time spent up to now is     1214.5 secs

     Computing kpt #:    89
     total cpu time spent up to now is     1228.3 secs

     Computing kpt #:    90
     total cpu time spent up to now is     1242.1 secs

     Computing kpt #:    91
     total cpu time spent up to now is     1256.4 secs

     Computing kpt #:    92
     total cpu time spent up to now is     1270.2 secs

     Computing kpt #:    93
     total cpu time spent up to now is     1283.8 secs

     Computing kpt #:    94
     total cpu time spent up to now is     1297.4 secs

     Computing kpt #:    95
     total cpu time spent up to now is     1311.2 secs

     Computing kpt #:    96
     total cpu time spent up to now is     1324.9 secs

     Computing kpt #:    97
     total cpu time spent up to now is     1338.8 secs

     Computing kpt #:    98
     total cpu time spent up to now is     1352.5 secs

     Computing kpt #:    99
     total cpu time spent up to now is     1366.5 secs

     Computing kpt #:   100
     total cpu time spent up to now is     1380.1 secs

     Computing kpt #:   101
     total cpu time spent up to now is     1393.7 secs

     Computing kpt #:   102
     total cpu time spent up to now is     1407.5 secs

     Computing kpt #:   103
     total cpu time spent up to now is     1421.4 secs

     Computing kpt #:   104
     total cpu time spent up to now is     1435.8 secs

     Computing kpt #:   105
     total cpu time spent up to now is     1449.3 secs

     Computing kpt #:   106
     total cpu time spent up to now is     1462.9 secs

     Computing kpt #:   107
     total cpu time spent up to now is     1476.8 secs

     Computing kpt #:   108
     total cpu time spent up to now is     1491.5 secs

     Computing kpt #:   109
     total cpu time spent up to now is     1506.3 secs

     Computing kpt #:   110
     total cpu time spent up to now is     1520.4 secs

     Computing kpt #:   111
     total cpu time spent up to now is     1535.0 secs

     Computing kpt #:   112
     total cpu time spent up to now is     1550.0 secs

     Computing kpt #:   113
     total cpu time spent up to now is     1563.6 secs

     Computing kpt #:   114
     total cpu time spent up to now is     1578.1 secs

     Computing kpt #:   115
     total cpu time spent up to now is     1592.3 secs

     Computing kpt #:   116
     total cpu time spent up to now is     1606.7 secs

     Computing kpt #:   117
     total cpu time spent up to now is     1621.3 secs

     Computing kpt #:   118
     total cpu time spent up to now is     1635.0 secs

     Computing kpt #:   119
     total cpu time spent up to now is     1648.8 secs

     Computing kpt #:   120
     total cpu time spent up to now is     1662.6 secs

     Computing kpt #:   121
     total cpu time spent up to now is     1676.1 secs

     Computing kpt #:   122
     total cpu time spent up to now is     1689.8 secs

     Computing kpt #:   123
     total cpu time spent up to now is     1703.3 secs

     Computing kpt #:   124
     total cpu time spent up to now is     1717.5 secs

     Computing kpt #:   125
     total cpu time spent up to now is     1731.0 secs

     Computing kpt #:   126
     total cpu time spent up to now is     1744.7 secs

     Computing kpt #:   127
     total cpu time spent up to now is     1758.4 secs

     Computing kpt #:   128
     total cpu time spent up to now is     1772.4 secs

     Computing kpt #:   129
     total cpu time spent up to now is     1785.9 secs

     Computing kpt #:   130
     total cpu time spent up to now is     1799.8 secs

     Computing kpt #:   131
     total cpu time spent up to now is     1813.5 secs

     Computing kpt #:   132
     total cpu time spent up to now is     1827.2 secs

     Computing kpt #:   133
     total cpu time spent up to now is     1840.8 secs

     Computing kpt #:   134
     total cpu time spent up to now is     1854.6 secs

     Computing kpt #:   135
     total cpu time spent up to now is     1868.4 secs

     Computing kpt #:   136
     total cpu time spent up to now is     1882.2 secs

     Computing kpt #:   137
     total cpu time spent up to now is     1896.0 secs

     Computing kpt #:   138
     total cpu time spent up to now is     1909.8 secs

     Computing kpt #:   139
     total cpu time spent up to now is     1923.6 secs

     Computing kpt #:   140
     total cpu time spent up to now is     1937.4 secs

     Computing kpt #:   141
     total cpu time spent up to now is     1951.0 secs

     Computing kpt #:   142
     total cpu time spent up to now is     1964.9 secs

     Computing kpt #:   143
     total cpu time spent up to now is     1978.7 secs

     Computing kpt #:   144
     total cpu time spent up to now is     1992.4 secs

     Computing kpt #:   145
     total cpu time spent up to now is     2006.2 secs

     Computing kpt #:   146
     total cpu time spent up to now is     2022.0 secs

     Computing kpt #:   147
     total cpu time spent up to now is     2036.2 secs

     Computing kpt #:   148
     total cpu time spent up to now is     2050.1 secs

     Computing kpt #:   149
     total cpu time spent up to now is     2064.3 secs

     Computing kpt #:   150
     total cpu time spent up to now is     2078.5 secs

     Computing kpt #:   151
     total cpu time spent up to now is     2092.1 secs

     Computing kpt #:   152
     total cpu time spent up to now is     2105.7 secs

     Computing kpt #:   153
     total cpu time spent up to now is     2119.3 secs

     Computing kpt #:   154
     total cpu time spent up to now is     2133.5 secs

     Computing kpt #:   155
     total cpu time spent up to now is     2147.2 secs

     Computing kpt #:   156
     total cpu time spent up to now is     2160.7 secs

     Computing kpt #:   157
     total cpu time spent up to now is     2174.3 secs

     Computing kpt #:   158
     total cpu time spent up to now is     2187.8 secs

     Computing kpt #:   159
     total cpu time spent up to now is     2201.5 secs

     Computing kpt #:   160
     total cpu time spent up to now is     2215.2 secs

     ethr =  4.02E-13,  avg # of iterations = 15.2

     total cpu time spent up to now is     2215.2 secs

     End of band structure calculation

          k = 0.0000 0.0000 0.0777 ( 79082 PWs)   bands (ev):

   -29.7817 -29.7817 -29.7812 -29.7812 -29.7810 -29.7810 -29.7794 -29.7794
   -29.7789 -29.7789 -29.7786 -29.7786 -29.7311 -29.7311 -29.7306 -29.7306
   -29.7305 -29.7305 -29.7299 -29.7299 -29.7295 -29.7295 -29.7292 -29.7292
   -28.3307 -28.3307 -28.3301 -28.3301 -28.3300 -28.3300 -28.3281 -28.3281
   -28.3276 -28.3276 -28.3273 -28.3273 -28.2865 -28.2865 -28.2860 -28.2860
   -28.2859 -28.2859 -28.2850 -28.2850 -28.2845 -28.2845 -28.2842 -28.2842
   -28.2648 -28.2648 -28.2643 -28.2643 -28.2641 -28.2641 -28.2636 -28.2636
   -28.2632 -28.2632 -28.2629 -28.2629  -7.4576  -7.4576  -7.4573  -7.4573
    -7.4570  -7.4570  -7.4238  -7.4238  -7.4234  -7.4234  -7.4232  -7.4232
    -7.4138  -7.4138  -7.4134  -7.4134  -7.4132  -7.4132  -7.4043  -7.4043
    -7.4039  -7.4039  -7.4037  -7.4037  -6.9978  -6.9978  -6.9974  -6.9974
    -6.9972  -6.9972  -6.9920  -6.9920  -6.9917  -6.9917  -6.9914  -6.9914
    -6.9764  -6.9764  -6.9760  -6.9760  -6.9758  -6.9758  -6.9448  -6.9448
    -6.9445  -6.9445  -6.9443  -6.9443  -6.8813  -6.8813  -6.8810  -6.8810
    -6.8807  -6.8807  -6.8641  -6.8641  -6.8638  -6.8638  -6.8636  -6.8636

          k = 0.0000 0.0214 0.0777 ( 79030 PWs)   bands (ev):

   -29.7817 -29.7817 -29.7812 -29.7812 -29.7810 -29.7810 -29.7794 -29.7794
   -29.7789 -29.7789 -29.7786 -29.7786 -29.7311 -29.7311 -29.7306 -29.7306
   -29.7305 -29.7305 -29.7299 -29.7299 -29.7295 -29.7295 -29.7292 -29.7291
   -28.3307 -28.3307 -28.3301 -28.3301 -28.3300 -28.3300 -28.3281 -28.3281
   -28.3276 -28.3276 -28.3273 -28.3273 -28.2865 -28.2865 -28.2860 -28.2860
   -28.2859 -28.2859 -28.2850 -28.2850 -28.2845 -28.2845 -28.2842 -28.2842
   -28.2648 -28.2647 -28.2643 -28.2643 -28.2641 -28.2641 -28.2636 -28.2636
   -28.2632 -28.2632 -28.2629 -28.2628  -7.4577  -7.4576  -7.4573  -7.4573
    -7.4571  -7.4570  -7.4238  -7.4238  -7.4234  -7.4234  -7.4232  -7.4232
    -7.4138  -7.4138  -7.4135  -7.4135  -7.4132  -7.4132  -7.4043  -7.4043
    -7.4040  -7.4039  -7.4037  -7.4037  -6.9979  -6.9979  -6.9975  -6.9975
    -6.9973  -6.9973  -6.9922  -6.9920  -6.9918  -6.9917  -6.9916  -6.9914
    -6.9764  -6.9763  -6.9761  -6.9760  -6.9759  -6.9758  -6.9448  -6.9448
    -6.9445  -6.9445  -6.9442  -6.9442  -6.8815  -6.8815  -6.8811  -6.8811
    -6.8809  -6.8809  -6.8640  -6.8640  -6.8637  -6.8637  -6.8635  -6.8634

          k = 0.0000 0.0428 0.0777 ( 79000 PWs)   bands (ev):

   -29.7817 -29.7817 -29.7811 -29.7811 -29.7810 -29.7810 -29.7794 -29.7794
   -29.7789 -29.7789 -29.7786 -29.7786 -29.7311 -29.7311 -29.7307 -29.7306
   -29.7305 -29.7305 -29.7299 -29.7299 -29.7295 -29.7295 -29.7292 -29.7291
   -28.3307 -28.3307 -28.3301 -28.3301 -28.3299 -28.3299 -28.3281 -28.3281
   -28.3276 -28.3276 -28.3273 -28.3273 -28.2865 -28.2865 -28.2860 -28.2860
   -28.2859 -28.2859 -28.2850 -28.2850 -28.2845 -28.2845 -28.2842 -28.2842
   -28.2648 -28.2647 -28.2643 -28.2643 -28.2641 -28.2641 -28.2636 -28.2636
   -28.2632 -28.2632 -28.2629 -28.2628  -7.4578  -7.4576  -7.4574  -7.4573
    -7.4571  -7.4570  -7.4239  -7.4239  -7.4235  -7.4235  -7.4233  -7.4233
    -7.4139  -7.4139  -7.4136  -7.4136  -7.4134  -7.4133  -7.4044  -7.4043
    -7.4041  -7.4040  -7.4038  -7.4038  -6.9982  -6.9982  -6.9979  -6.9979
    -6.9976  -6.9976  -6.9925  -6.9922  -6.9921  -6.9919  -6.9918  -6.9916
    -6.9765  -6.9763  -6.9761  -6.9759  -6.9759  -6.9757  -6.9448  -6.9448
    -6.9444  -6.9444  -6.9442  -6.9442  -6.8819  -6.8819  -6.8815  -6.8815
    -6.8813  -6.8813  -6.8636  -6.8636  -6.8633  -6.8633  -6.8631  -6.8630

          k = 0.0000 0.0642 0.0777 ( 79008 PWs)   bands (ev):

   -29.7817 -29.7817 -29.7811 -29.7811 -29.7810 -29.7810 -29.7794 -29.7794
   -29.7789 -29.7789 -29.7785 -29.7785 -29.7311 -29.7311 -29.7307 -29.7306
   -29.7305 -29.7304 -29.7299 -29.7299 -29.7295 -29.7295 -29.7292 -29.7291
   -28.3306 -28.3306 -28.3301 -28.3300 -28.3299 -28.3299 -28.3281 -28.3281
   -28.3275 -28.3275 -28.3272 -28.3272 -28.2865 -28.2865 -28.2860 -28.2860
   -28.2859 -28.2859 -28.2850 -28.2850 -28.2845 -28.2845 -28.2842 -28.2842
   -28.2648 -28.2647 -28.2643 -28.2643 -28.2641 -28.2641 -28.2636 -28.2636
   -28.2632 -28.2632 -28.2628 -28.2628  -7.4579  -7.4577  -7.4575  -7.4573
    -7.4573  -7.4571  -7.4241  -7.4241  -7.4237  -7.4237  -7.4235  -7.4235
    -7.4141  -7.4141  -7.4138  -7.4138  -7.4136  -7.4135  -7.4046  -7.4045
    -7.4042  -7.4041  -7.4040  -7.4039  -6.9988  -6.9988  -6.9985  -6.9984
    -6.9982  -6.9982  -6.9929  -6.9925  -6.9925  -6.9923  -6.9922  -6.9919
    -6.9765  -6.9762  -6.9761  -6.9759  -6.9759  -6.9757  -6.9447  -6.9447
    -6.9444  -6.9444  -6.9441  -6.9441  -6.8826  -6.8826  -6.8822  -6.8822
    -6.8820  -6.8820  -6.8631  -6.8630  -6.8627  -6.8627  -6.8625  -6.8624

          k = 0.0000 0.0855 0.0777 ( 79016 PWs)   bands (ev):

   -29.7817 -29.7817 -29.7811 -29.7811 -29.7810 -29.7810 -29.7794 -29.7794
   -29.7788 -29.7788 -29.7785 -29.7785 -29.7311 -29.7311 -29.7307 -29.7306
   -29.7305 -29.7304 -29.7299 -29.7299 -29.7295 -29.7295 -29.7292 -29.7291
   -28.3306 -28.3306 -28.3300 -28.3300 -28.3299 -28.3299 -28.3280 -28.3280
   -28.3275 -28.3275 -28.3272 -28.3272 -28.2866 -28.2866 -28.2861 -28.2861
   -28.2859 -28.2859 -28.2850 -28.2850 -28.2845 -28.2845 -28.2842 -28.2842
   -28.2647 -28.2647 -28.2643 -28.2642 -28.2641 -28.2640 -28.2636 -28.2636
   -28.2632 -28.2631 -28.2628 -28.2628  -7.4580  -7.4578  -7.4577  -7.4574
    -7.4574  -7.4572  -7.4243  -7.4243  -7.4239  -7.4239  -7.4237  -7.4237
    -7.4144  -7.4144  -7.4141  -7.4140  -7.4139  -7.4138  -7.4048  -7.4046
    -7.4044  -7.4043  -7.4042  -7.4040  -6.9997  -6.9996  -6.9993  -6.9992
    -6.9991  -6.9990  -6.9934  -6.9930  -6.9930  -6.9928  -6.9926  -6.9924
    -6.9765  -6.9762  -6.9762  -6.9759  -6.9758  -6.9756  -6.9446  -6.9446
    -6.9443  -6.9443  -6.9441  -6.9440  -6.8834  -6.8834  -6.8831  -6.8831
    -6.8829  -6.8828  -6.8623  -6.8622  -6.8620  -6.8619  -6.8617  -6.8617

          k = 0.0000 0.1069 0.0777 ( 79052 PWs)   bands (ev):

   -29.7816 -29.7816 -29.7811 -29.7811 -29.7809 -29.7809 -29.7793 -29.7793
   -29.7788 -29.7788 -29.7785 -29.7785 -29.7311 -29.7311 -29.7306 -29.7306
   -29.7305 -29.7304 -29.7299 -29.7299 -29.7295 -29.7295 -29.7292 -29.7291
   -28.3305 -28.3305 -28.3300 -28.3299 -28.3298 -28.3298 -28.3280 -28.3280
   -28.3274 -28.3274 -28.3271 -28.3271 -28.2866 -28.2866 -28.2861 -28.2861
   -28.2859 -28.2859 -28.2850 -28.2850 -28.2845 -28.2845 -28.2842 -28.2842
   -28.2647 -28.2646 -28.2643 -28.2642 -28.2641 -28.2640 -28.2636 -28.2635
   -28.2632 -28.2631 -28.2628 -28.2627  -7.4582  -7.4579  -7.4579  -7.4576
    -7.4576  -7.4573  -7.4246  -7.4246  -7.4242  -7.4242  -7.4240  -7.4240
    -7.4148  -7.4147  -7.4145  -7.4144  -7.4143  -7.4141  -7.4050  -7.4048
    -7.4046  -7.4045  -7.4044  -7.4043  -7.0008  -7.0006  -7.0005  -7.0003
    -7.0002  -7.0000  -6.9939  -6.9935  -6.9935  -6.9933  -6.9931  -6.9929
    -6.9766  -6.9762  -6.9762  -6.9760  -6.9758  -6.9756  -6.9445  -6.9445
    -6.9442  -6.9441  -6.9439  -6.9439  -6.8844  -6.8844  -6.8841  -6.8841
    -6.8838  -6.8838  -6.8614  -6.8613  -6.8611  -6.8610  -6.8609  -6.8608

          k = 0.0000 0.1283 0.0777 ( 79074 PWs)   bands (ev):

   -29.7816 -29.7816 -29.7810 -29.7810 -29.7809 -29.7809 -29.7793 -29.7793
   -29.7788 -29.7788 -29.7784 -29.7784 -29.7311 -29.7310 -29.7306 -29.7306
   -29.7305 -29.7304 -29.7299 -29.7299 -29.7295 -29.7294 -29.7292 -29.7291
   -28.3305 -28.3304 -28.3299 -28.3299 -28.3297 -28.3297 -28.3279 -28.3279
   -28.3274 -28.3274 -28.3271 -28.3271 -28.2866 -28.2866 -28.2861 -28.2861
   -28.2859 -28.2859 -28.2850 -28.2850 -28.2846 -28.2846 -28.2842 -28.2842
   -28.2647 -28.2646 -28.2642 -28.2642 -28.2641 -28.2640 -28.2636 -28.2635
   -28.2631 -28.2631 -28.2628 -28.2627  -7.4585  -7.4581  -7.4581  -7.4578
    -7.4577  -7.4575  -7.4249  -7.4249  -7.4245  -7.4245  -7.4243  -7.4243
    -7.4154  -7.4151  -7.4150  -7.4148  -7.4148  -7.4146  -7.4052  -7.4051
    -7.4048  -7.4047  -7.4046  -7.4045  -7.0022  -7.0019  -7.0019  -7.0016
    -7.0016  -7.0013  -6.9944  -6.9941  -6.9940  -6.9938  -6.9937  -6.9935
    -6.9766  -6.9762  -6.9762  -6.9760  -6.9758  -6.9756  -6.9444  -6.9443
    -6.9440  -6.9440  -6.9438  -6.9438  -6.8855  -6.8855  -6.8851  -6.8851
    -6.8849  -6.8849  -6.8605  -6.8604  -6.8601  -6.8600  -6.8599  -6.8598

          k = 0.0000 0.1497 0.0777 ( 79108 PWs)   bands (ev):

   -29.7815 -29.7815 -29.7810 -29.7810 -29.7808 -29.7808 -29.7792 -29.7792
   -29.7787 -29.7787 -29.7784 -29.7784 -29.7311 -29.7310 -29.7306 -29.7306
   -29.7305 -29.7304 -29.7299 -29.7299 -29.7295 -29.7294 -29.7292 -29.7291
   -28.3304 -28.3304 -28.3298 -28.3298 -28.3297 -28.3297 -28.3278 -28.3278
   -28.3273 -28.3273 -28.3270 -28.3270 -28.2866 -28.2866 -28.2861 -28.2861
   -28.2859 -28.2859 -28.2850 -28.2850 -28.2846 -28.2846 -28.2842 -28.2842
   -28.2647 -28.2646 -28.2642 -28.2641 -28.2640 -28.2639 -28.2635 -28.2635
   -28.2631 -28.2630 -28.2628 -28.2627  -7.4587  -7.4584  -7.4583  -7.4581
    -7.4579  -7.4576  -7.4253  -7.4253  -7.4249  -7.4249  -7.4247  -7.4247
    -7.4160  -7.4157  -7.4156  -7.4154  -7.4153  -7.4151  -7.4054  -7.4053
    -7.4051  -7.4050  -7.4048  -7.4048  -7.0038  -7.0035  -7.0034  -7.0032
    -7.0030  -7.0028  -6.9950  -6.9946  -6.9946  -6.9944  -6.9943  -6.9940
    -6.9766  -6.9762  -6.9762  -6.9760  -6.9758  -6.9756  -6.9442  -6.9442
    -6.9439  -6.9438  -6.9436  -6.9436  -6.8866  -6.8866  -6.8863  -6.8863
    -6.8860  -6.8860  -6.8594  -6.8593  -6.8591  -6.8590  -6.8589  -6.8588

          k = 0.0000 0.1711 0.0777 ( 79122 PWs)   bands (ev):

   -29.7815 -29.7815 -29.7809 -29.7809 -29.7808 -29.7808 -29.7792 -29.7792
   -29.7787 -29.7787 -29.7783 -29.7783 -29.7311 -29.7310 -29.7306 -29.7305
   -29.7305 -29.7304 -29.7299 -29.7299 -29.7295 -29.7294 -29.7291 -29.7291
   -28.3303 -28.3303 -28.3297 -28.3297 -28.3296 -28.3296 -28.3277 -28.3277
   -28.3272 -28.3272 -28.3269 -28.3269 -28.2866 -28.2866 -28.2861 -28.2861
   -28.2859 -28.2859 -28.2850 -28.2850 -28.2846 -28.2846 -28.2842 -28.2842
   -28.2646 -28.2645 -28.2642 -28.2641 -28.2640 -28.2639 -28.2635 -28.2634
   -28.2631 -28.2630 -28.2627 -28.2626  -7.4590  -7.4586  -7.4585  -7.4584
    -7.4581  -7.4579  -7.4258  -7.4257  -7.4254  -7.4254  -7.4251  -7.4251
    -7.4167  -7.4164  -7.4163  -7.4161  -7.4159  -7.4157  -7.4056  -7.4056
    -7.4053  -7.4053  -7.4050  -7.4050  -7.0056  -7.0052  -7.0051  -7.0050
    -7.0047  -7.0045  -6.9955  -6.9953  -6.9952  -6.9949  -6.9949  -6.9947
    -6.9766  -6.9763  -6.9762  -6.9760  -6.9758  -6.9756  -6.9440  -6.9440
    -6.9437  -6.9436  -6.9435  -6.9434  -6.8878  -6.8877  -6.8874  -6.8874
    -6.8872  -6.8872  -6.8584  -6.8583  -6.8581  -6.8580  -6.8578  -6.8577

          k = 0.0000 0.1925 0.0777 ( 79158 PWs)   bands (ev):

   -29.7814 -29.7814 -29.7809 -29.7809 -29.7807 -29.7807 -29.7791 -29.7791
   -29.7786 -29.7786 -29.7783 -29.7783 -29.7311 -29.7310 -29.7306 -29.7305
   -29.7304 -29.7304 -29.7299 -29.7298 -29.7295 -29.7294 -29.7291 -29.7290
   -28.3302 -28.3302 -28.3296 -28.3296 -28.3295 -28.3295 -28.3276 -28.3276
   -28.3271 -28.3271 -28.3268 -28.3268 -28.2866 -28.2866 -28.2861 -28.2861
   -28.2859 -28.2859 -28.2851 -28.2851 -28.2846 -28.2846 -28.2843 -28.2842
   -28.2646 -28.2645 -28.2641 -28.2640 -28.2639 -28.2638 -28.2635 -28.2634
   -28.2630 -28.2629 -28.2627 -28.2626  -7.4593  -7.4589  -7.4587  -7.4587
    -7.4584  -7.4581  -7.4262  -7.4262  -7.4259  -7.4258  -7.4256  -7.4256
    -7.4175  -7.4172  -7.4170  -7.4169  -7.4166  -7.4164  -7.4059  -7.4058
    -7.4055  -7.4054  -7.4053  -7.4052  -7.0075  -7.0071  -7.0069  -7.0068
    -7.0065  -7.0062  -6.9961  -6.9959  -6.9958  -6.9955  -6.9955  -6.9953
    -6.9767  -6.9763  -6.9762  -6.9761  -6.9758  -6.9756  -6.9438  -6.9438
    -6.9435  -6.9434  -6.9432  -6.9432  -6.8889  -6.8889  -6.8886  -6.8885
    -6.8883  -6.8883  -6.8573  -6.8572  -6.8570  -6.8569  -6.8568  -6.8567

          k = 0.0000 0.2138 0.0777 ( 79180 PWs)   bands (ev):

   -29.7814 -29.7814 -29.7808 -29.7808 -29.7807 -29.7807 -29.7791 -29.7791
   -29.7785 -29.7785 -29.7782 -29.7782 -29.7311 -29.7310 -29.7306 -29.7305
   -29.7304 -29.7303 -29.7299 -29.7298 -29.7295 -29.7294 -29.7291 -29.7290
   -28.3301 -28.3301 -28.3295 -28.3295 -28.3294 -28.3294 -28.3275 -28.3275
   -28.3270 -28.3270 -28.3267 -28.3267 -28.2866 -28.2866 -28.2861 -28.2861
   -28.2860 -28.2860 -28.2851 -28.2851 -28.2846 -28.2846 -28.2843 -28.2843
   -28.2645 -28.2644 -28.2641 -28.2640 -28.2639 -28.2638 -28.2634 -28.2633
   -28.2630 -28.2629 -28.2626 -28.2625  -7.4596  -7.4593  -7.4590  -7.4590
    -7.4587  -7.4584  -7.4268  -7.4268  -7.4264  -7.4264  -7.4262  -7.4262
    -7.4184  -7.4181  -7.4178  -7.4178  -7.4174  -7.4172  -7.4061  -7.4059
    -7.4057  -7.4056  -7.4055  -7.4054  -7.0094  -7.0090  -7.0088  -7.0088
    -7.0084  -7.0081  -6.9967  -6.9966  -6.9964  -6.9962  -6.9961  -6.9959
    -6.9767  -6.9763  -6.9762  -6.9761  -6.9759  -6.9756  -6.9436  -6.9435
    -6.9432  -6.9432  -6.9430  -6.9429  -6.8900  -6.8900  -6.8897  -6.8896
    -6.8894  -6.8894  -6.8563  -6.8562  -6.8560  -6.8559  -6.8557  -6.8556

          k = 0.0000 0.2352 0.0777 ( 79210 PWs)   bands (ev):

   -29.7813 -29.7813 -29.7807 -29.7807 -29.7806 -29.7806 -29.7790 -29.7790
   -29.7785 -29.7785 -29.7782 -29.7782 -29.7311 -29.7310 -29.7306 -29.7305
   -29.7304 -29.7303 -29.7299 -29.7298 -29.7295 -29.7294 -29.7291 -29.7290
   -28.3300 -28.3300 -28.3294 -28.3294 -28.3293 -28.3293 -28.3274 -28.3274
   -28.3269 -28.3269 -28.3266 -28.3266 -28.2866 -28.2866 -28.2861 -28.2861
   -28.2860 -28.2860 -28.2851 -28.2851 -28.2846 -28.2846 -28.2843 -28.2843
   -28.2645 -28.2644 -28.2640 -28.2639 -28.2639 -28.2637 -28.2634 -28.2633
   -28.2630 -28.2628 -28.2626 -28.2625  -7.4600  -7.4596  -7.4594  -7.4593
    -7.4589  -7.4587  -7.4274  -7.4274  -7.4270  -7.4270  -7.4267  -7.4267
    -7.4194  -7.4190  -7.4188  -7.4186  -7.4183  -7.4180  -7.4063  -7.4061
    -7.4059  -7.4057  -7.4057  -7.4055  -7.0114  -7.0110  -7.0107  -7.0107
    -7.0103  -7.0101  -6.9973  -6.9972  -6.9970  -6.9969  -6.9967  -6.9966
    -6.9767  -6.9764  -6.9763  -6.9761  -6.9759  -6.9757  -6.9433  -6.9433
    -6.9430  -6.9429  -6.9428  -6.9427  -6.8911  -6.8911  -6.8907  -6.8907
    -6.8905  -6.8905  -6.8552  -6.8551  -6.8549  -6.8548  -6.8547  -6.8546

          k = 0.0000 0.2566 0.0777 ( 79204 PWs)   bands (ev):

   -29.7812 -29.7812 -29.7807 -29.7807 -29.7805 -29.7805 -29.7789 -29.7789
   -29.7784 -29.7784 -29.7781 -29.7781 -29.7310 -29.7309 -29.7306 -29.7305
   -29.7304 -29.7303 -29.7299 -29.7298 -29.7295 -29.7293 -29.7291 -29.7290
   -28.3299 -28.3299 -28.3293 -28.3293 -28.3292 -28.3292 -28.3273 -28.3273
   -28.3268 -28.3268 -28.3265 -28.3265 -28.2866 -28.2866 -28.2861 -28.2861
   -28.2860 -28.2860 -28.2851 -28.2851 -28.2846 -28.2846 -28.2843 -28.2843
   -28.2644 -28.2643 -28.2640 -28.2639 -28.2638 -28.2637 -28.2633 -28.2632
   -28.2629 -28.2628 -28.2626 -28.2624  -7.4603  -7.4600  -7.4597  -7.4596
    -7.4592  -7.4590  -7.4280  -7.4280  -7.4276  -7.4276  -7.4274  -7.4274
    -7.4204  -7.4200  -7.4198  -7.4195  -7.4192  -7.4189  -7.4064  -7.4062
    -7.4061  -7.4058  -7.4058  -7.4056  -7.0134  -7.0130  -7.0127  -7.0127
    -7.0123  -7.0120  -6.9980  -6.9979  -6.9976  -6.9975  -6.9973  -6.9973
    -6.9768  -6.9764  -6.9763  -6.9762  -6.9760  -6.9757  -6.9431  -6.9430
    -6.9427  -6.9426  -6.9425  -6.9424  -6.8921  -6.8921  -6.8917  -6.8917
    -6.8915  -6.8915  -6.8542  -6.8541  -6.8539  -6.8538  -6.8537  -6.8536

          k = 0.0000 0.2780 0.0777 ( 79238 PWs)   bands (ev):

   -29.7812 -29.7812 -29.7806 -29.7806 -29.7805 -29.7805 -29.7789 -29.7789
   -29.7783 -29.7783 -29.7780 -29.7780 -29.7310 -29.7309 -29.7306 -29.7304
   -29.7304 -29.7303 -29.7299 -29.7298 -29.7294 -29.7293 -29.7291 -29.7290
   -28.3298 -28.3298 -28.3292 -28.3292 -28.3291 -28.3290 -28.3272 -28.3272
   -28.3267 -28.3267 -28.3264 -28.3264 -28.2867 -28.2867 -28.2861 -28.2861
   -28.2860 -28.2860 -28.2851 -28.2851 -28.2847 -28.2846 -28.2843 -28.2843
   -28.2644 -28.2642 -28.2639 -28.2638 -28.2637 -28.2636 -28.2633 -28.2632
   -28.2629 -28.2627 -28.2625 -28.2624  -7.4607  -7.4603  -7.4601  -7.4599
    -7.4596  -7.4593  -7.4288  -7.4287  -7.4284  -7.4283  -7.4281  -7.4281
    -7.4214  -7.4210  -7.4207  -7.4205  -7.4201  -7.4199  -7.4066  -7.4063
    -7.4062  -7.4060  -7.4059  -7.4057  -7.0153  -7.0149  -7.0146  -7.0146
    -7.0142  -7.0139  -6.9986  -6.9986  -6.9982  -6.9982  -6.9980  -6.9979
    -6.9768  -6.9764  -6.9764  -6.9762  -6.9760  -6.9758  -6.9428  -6.9427
    -6.9424  -6.9423  -6.9422  -6.9421  -6.8930  -6.8930  -6.8927  -6.8927
    -6.8924  -6.8924  -6.8532  -6.8531  -6.8529  -6.8528  -6.8527  -6.8526

          k = 0.0000 0.2994 0.0777 ( 79254 PWs)   bands (ev):

   -29.7811 -29.7811 -29.7805 -29.7805 -29.7804 -29.7804 -29.7788 -29.7788
   -29.7783 -29.7783 -29.7779 -29.7779 -29.7310 -29.7309 -29.7305 -29.7304
   -29.7304 -29.7303 -29.7299 -29.7298 -29.7294 -29.7293 -29.7291 -29.7290
   -28.3297 -28.3296 -28.3291 -28.3291 -28.3290 -28.3289 -28.3271 -28.3271
   -28.3266 -28.3266 -28.3263 -28.3262 -28.2867 -28.2867 -28.2862 -28.2862
   -28.2860 -28.2860 -28.2851 -28.2851 -28.2847 -28.2847 -28.2843 -28.2843
   -28.2643 -28.2642 -28.2639 -28.2637 -28.2637 -28.2636 -28.2632 -28.2631
   -28.2628 -28.2627 -28.2625 -28.2623  -7.4610  -7.4607  -7.4604  -7.4602
    -7.4599  -7.4596  -7.4296  -7.4295  -7.4292  -7.4291  -7.4289  -7.4288
    -7.4223  -7.4219  -7.4217  -7.4214  -7.4210  -7.4208  -7.4067  -7.4063
    -7.4063  -7.4061  -7.4060  -7.4058  -7.0172  -7.0168  -7.0165  -7.0165
    -7.0161  -7.0158  -6.9992  -6.9992  -6.9989  -6.9989  -6.9986  -6.9986
    -6.9768  -6.9765  -6.9764  -6.9762  -6.9761  -6.9758  -6.9425  -6.9424
    -6.9421  -6.9420  -6.9419  -6.9418  -6.8939  -6.8939  -6.8936  -6.8936
    -6.8933  -6.8933  -6.8523  -6.8522  -6.8519  -6.8519  -6.8517  -6.8516

          k = 0.0000 0.3208 0.0777 ( 79260 PWs)   bands (ev):

   -29.7810 -29.7810 -29.7805 -29.7805 -29.7803 -29.7803 -29.7787 -29.7787
   -29.7782 -29.7782 -29.7779 -29.7779 -29.7310 -29.7309 -29.7305 -29.7304
   -29.7304 -29.7302 -29.7299 -29.7298 -29.7294 -29.7293 -29.7291 -29.7290
   -28.3296 -28.3295 -28.3290 -28.3290 -28.3288 -28.3288 -28.3270 -28.3270
   -28.3265 -28.3265 -28.3262 -28.3261 -28.2867 -28.2867 -28.2862 -28.2862
   -28.2860 -28.2860 -28.2852 -28.2852 -28.2847 -28.2847 -28.2843 -28.2843
   -28.2643 -28.2641 -28.2638 -28.2637 -28.2636 -28.2635 -28.2632 -28.2631
   -28.2627 -28.2626 -28.2624 -28.2623  -7.4614  -7.4610  -7.4608  -7.4605
    -7.4602  -7.4599  -7.4305  -7.4303  -7.4301  -7.4299  -7.4298  -7.4297
    -7.4231  -7.4228  -7.4225  -7.4222  -7.4219  -7.4216  -7.4067  -7.4064
    -7.4064  -7.4061  -7.4061  -7.4058  -7.0191  -7.0186  -7.0183  -7.0183
    -7.0180  -7.0176  -6.9999  -6.9999  -6.9995  -6.9995  -6.9992  -6.9992
    -6.9769  -6.9765  -6.9765  -6.9763  -6.9761  -6.9759  -6.9422  -6.9421
    -6.9418  -6.9417  -6.9416  -6.9415  -6.8947  -6.8947  -6.8944  -6.8944
    -6.8941  -6.8941  -6.8513  -6.8513  -6.8510  -6.8509  -6.8508  -6.8507

          k = 0.0000 0.3421 0.0777 ( 79278 PWs)   bands (ev):

   -29.7809 -29.7809 -29.7804 -29.7804 -29.7803 -29.7802 -29.7786 -29.7786
   -29.7781 -29.7781 -29.7778 -29.7778 -29.7310 -29.7309 -29.7305 -29.7304
   -29.7303 -29.7302 -29.7298 -29.7297 -29.7294 -29.7293 -29.7291 -29.7289
   -28.3294 -28.3294 -28.3289 -28.3289 -28.3287 -28.3287 -28.3269 -28.3269
   -28.3264 -28.3263 -28.3261 -28.3260 -28.2867 -28.2867 -28.2862 -28.2862
   -28.2860 -28.2860 -28.2852 -28.2852 -28.2847 -28.2847 -28.2844 -28.2844
   -28.2642 -28.2641 -28.2637 -28.2636 -28.2636 -28.2635 -28.2631 -28.2630
   -28.2627 -28.2626 -28.2623 -28.2622  -7.4617  -7.4613  -7.4611  -7.4609
    -7.4605  -7.4602  -7.4315  -7.4312  -7.4311  -7.4309  -7.4308  -7.4306
    -7.4239  -7.4235  -7.4233  -7.4230  -7.4227  -7.4224  -7.4068  -7.4064
    -7.4064  -7.4062  -7.4061  -7.4058  -7.0208  -7.0204  -7.0201  -7.0201
    -7.0197  -7.0194  -7.0005  -7.0005  -7.0001  -7.0001  -6.9999  -6.9998
    -6.9769  -6.9766  -6.9765  -6.9763  -6.9762  -6.9760  -6.9419  -6.9417
    -6.9415  -6.9414  -6.9413  -6.9412  -6.8955  -6.8954  -6.8951  -6.8951
    -6.8949  -6.8948  -6.8505  -6.8504  -6.8501  -6.8501  -6.8499  -6.8498

          k = 0.0000 0.3635 0.0777 ( 79288 PWs)   bands (ev):

   -29.7809 -29.7809 -29.7803 -29.7803 -29.7802 -29.7802 -29.7786 -29.7786
   -29.7781 -29.7781 -29.7777 -29.7777 -29.7310 -29.7309 -29.7305 -29.7304
   -29.7303 -29.7302 -29.7298 -29.7297 -29.7294 -29.7293 -29.7290 -29.7289
   -28.3293 -28.3293 -28.3288 -28.3287 -28.3286 -28.3286 -28.3268 -28.3268
   -28.3263 -28.3262 -28.3259 -28.3259 -28.2867 -28.2867 -28.2862 -28.2862
   -28.2860 -28.2860 -28.2852 -28.2852 -28.2847 -28.2847 -28.2844 -28.2844
   -28.2642 -28.2640 -28.2637 -28.2636 -28.2635 -28.2634 -28.2631 -28.2630
   -28.2626 -28.2625 -28.2623 -28.2622  -7.4620  -7.4616  -7.4614  -7.4612
    -7.4608  -7.4606  -7.4326  -7.4322  -7.4322  -7.4319  -7.4319  -7.4316
    -7.4245  -7.4241  -7.4239  -7.4237  -7.4234  -7.4231  -7.4068  -7.4065
    -7.4065  -7.4062  -7.4061  -7.4059  -7.0224  -7.0220  -7.0217  -7.0217
    -7.0213  -7.0210  -7.0011  -7.0010  -7.0007  -7.0007  -7.0004  -7.0004
    -6.9769  -6.9766  -6.9765  -6.9763  -6.9763  -6.9760  -6.9416  -6.9414
    -6.9412  -6.9411  -6.9410  -6.9409  -6.8961  -6.8961  -6.8958  -6.8957
    -6.8955  -6.8955  -6.8496  -6.8496  -6.8493  -6.8492  -6.8491  -6.8490

          k = 0.0000 0.3849 0.0777 ( 79266 PWs)   bands (ev):

   -29.7808 -29.7808 -29.7803 -29.7803 -29.7801 -29.7801 -29.7785 -29.7785
   -29.7780 -29.7780 -29.7777 -29.7777 -29.7309 -29.7308 -29.7305 -29.7304
   -29.7303 -29.7302 -29.7298 -29.7297 -29.7294 -29.7293 -29.7290 -29.7289
   -28.3292 -28.3292 -28.3287 -28.3286 -28.3285 -28.3285 -28.3267 -28.3267
   -28.3262 -28.3261 -28.3258 -28.3258 -28.2867 -28.2867 -28.2862 -28.2862
   -28.2861 -28.2861 -28.2852 -28.2852 -28.2847 -28.2847 -28.2844 -28.2844
   -28.2641 -28.2640 -28.2636 -28.2635 -28.2635 -28.2634 -28.2630 -28.2629
   -28.2626 -28.2625 -28.2622 -28.2621  -7.4623  -7.4619  -7.4617  -7.4615
    -7.4611  -7.4609  -7.4336  -7.4333  -7.4332  -7.4330  -7.4329  -7.4326
    -7.4250  -7.4247  -7.4244  -7.4243  -7.4240  -7.4238  -7.4068  -7.4065
    -7.4065  -7.4062  -7.4062  -7.4059  -7.0239  -7.0234  -7.0232  -7.0231
    -7.0229  -7.0225  -7.0016  -7.0016  -7.0012  -7.0012  -7.0010  -7.0009
    -6.9770  -6.9767  -6.9766  -6.9764  -6.9763  -6.9761  -6.9413  -6.9411
    -6.9409  -6.9408  -6.9407  -6.9406  -6.8967  -6.8967  -6.8964  -6.8963
    -6.8961  -6.8961  -6.8489  -6.8488  -6.8485  -6.8485  -6.8483  -6.8482

          k = 0.0000 0.4063 0.0777 ( 79304 PWs)   bands (ev):

   -29.7808 -29.7808 -29.7802 -29.7802 -29.7801 -29.7801 -29.7785 -29.7785
   -29.7780 -29.7780 -29.7776 -29.7776 -29.7309 -29.7308 -29.7304 -29.7304
   -29.7303 -29.7302 -29.7298 -29.7297 -29.7294 -29.7293 -29.7290 -29.7289
   -28.3291 -28.3291 -28.3286 -28.3286 -28.3284 -28.3284 -28.3266 -28.3266
   -28.3261 -28.3261 -28.3258 -28.3257 -28.2867 -28.2867 -28.2862 -28.2862
   -28.2861 -28.2861 -28.2852 -28.2852 -28.2847 -28.2847 -28.2844 -28.2844
   -28.2641 -28.2640 -28.2636 -28.2635 -28.2634 -28.2633 -28.2630 -28.2629
   -28.2625 -28.2624 -28.2622 -28.2621  -7.4626  -7.4622  -7.4619  -7.4617
    -7.4614  -7.4611  -7.4347  -7.4343  -7.4343  -7.4341  -7.4339  -7.4336
    -7.4255  -7.4251  -7.4249  -7.4249  -7.4245  -7.4243  -7.4068  -7.4065
    -7.4065  -7.4062  -7.4062  -7.4059  -7.0252  -7.0248  -7.0246  -7.0245
    -7.0243  -7.0239  -7.0021  -7.0021  -7.0017  -7.0017  -7.0015  -7.0014
    -6.9770  -6.9767  -6.9766  -6.9764  -6.9764  -6.9761  -6.9410  -6.9408
    -6.9406  -6.9405  -6.9404  -6.9403  -6.8972  -6.8972  -6.8969  -6.8968
    -6.8966  -6.8966  -6.8481  -6.8481  -6.8478  -6.8478  -6.8476  -6.8475

          k = 0.0000 0.4277 0.0777 ( 79256 PWs)   bands (ev):

   -29.7807 -29.7807 -29.7802 -29.7802 -29.7800 -29.7800 -29.7784 -29.7784
   -29.7779 -29.7779 -29.7776 -29.7776 -29.7309 -29.7308 -29.7304 -29.7303
   -29.7303 -29.7302 -29.7298 -29.7297 -29.7293 -29.7293 -29.7290 -29.7289
   -28.3291 -28.3290 -28.3285 -28.3285 -28.3283 -28.3283 -28.3265 -28.3265
   -28.3260 -28.3260 -28.3257 -28.3256 -28.2867 -28.2867 -28.2862 -28.2862
   -28.2861 -28.2861 -28.2852 -28.2852 -28.2847 -28.2847 -28.2844 -28.2844
   -28.2640 -28.2639 -28.2635 -28.2634 -28.2634 -28.2633 -28.2629 -28.2629
   -28.2625 -28.2624 -28.2622 -28.2621  -7.4628  -7.4624  -7.4621  -7.4620
    -7.4616  -7.4614  -7.4358  -7.4354  -7.4353  -7.4351  -7.4350  -7.4346
    -7.4258  -7.4254  -7.4253  -7.4252  -7.4249  -7.4247  -7.4068  -7.4065
    -7.4065  -7.4062  -7.4062  -7.4060  -7.0264  -7.0260  -7.0259  -7.0257
    -7.0255  -7.0252  -7.0026  -7.0025  -7.0022  -7.0021  -7.0019  -7.0018
    -6.9770  -6.9768  -6.9766  -6.9764  -6.9764  -6.9762  -6.9407  -6.9406
    -6.9403  -6.9402  -6.9401  -6.9400  -6.8977  -6.8976  -6.8973  -6.8973
    -6.8971  -6.8970  -6.8475  -6.8475  -6.8472  -6.8471  -6.8470  -6.8469

          k = 0.0000 0.4491 0.0777 ( 79290 PWs)   bands (ev):

   -29.7807 -29.7807 -29.7801 -29.7801 -29.7800 -29.7800 -29.7784 -29.7784
   -29.7779 -29.7778 -29.7775 -29.7775 -29.7309 -29.7308 -29.7304 -29.7303
   -29.7303 -29.7302 -29.7298 -29.7297 -29.7293 -29.7292 -29.7290 -29.7289
   -28.3290 -28.3290 -28.3284 -28.3284 -28.3283 -28.3283 -28.3264 -28.3264
   -28.3259 -28.3259 -28.3256 -28.3256 -28.2867 -28.2867 -28.2862 -28.2862
   -28.2861 -28.2861 -28.2852 -28.2852 -28.2848 -28.2848 -28.2844 -28.2844
   -28.2640 -28.2639 -28.2635 -28.2634 -28.2633 -28.2632 -28.2629 -28.2628
   -28.2625 -28.2624 -28.2621 -28.2620  -7.4629  -7.4625  -7.4623  -7.4622
    -7.4619  -7.4616  -7.4368  -7.4364  -7.4363  -7.4361  -7.4359  -7.4356
    -7.4261  -7.4257  -7.4256  -7.4255  -7.4253  -7.4251  -7.4068  -7.4066
    -7.4065  -7.4062  -7.4062  -7.4060  -7.0274  -7.0270  -7.0270  -7.0267
    -7.0266  -7.0263  -7.0030  -7.0029  -7.0026  -7.0025  -7.0023  -7.0022
    -6.9771  -6.9769  -6.9767  -6.9765  -6.9764  -6.9763  -6.9404  -6.9403
    -6.9401  -6.9400  -6.9399  -6.9398  -6.8980  -6.8980  -6.8977  -6.8977
    -6.8975  -6.8974  -6.8469  -6.8469  -6.8466  -6.8466  -6.8464  -6.8464

          k = 0.0000 0.4704 0.0777 ( 79266 PWs)   bands (ev):

   -29.7806 -29.7806 -29.7801 -29.7801 -29.7799 -29.7799 -29.7783 -29.7783
   -29.7778 -29.7778 -29.7775 -29.7775 -29.7309 -29.7308 -29.7304 -29.7303
   -29.7302 -29.7302 -29.7298 -29.7297 -29.7293 -29.7292 -29.7290 -29.7289
   -28.3289 -28.3289 -28.3283 -28.3283 -28.3282 -28.3282 -28.3264 -28.3263
   -28.3258 -28.3258 -28.3255 -28.3255 -28.2868 -28.2868 -28.2862 -28.2862
   -28.2861 -28.2861 -28.2852 -28.2852 -28.2848 -28.2848 -28.2844 -28.2844
   -28.2639 -28.2639 -28.2635 -28.2634 -28.2633 -28.2632 -28.2629 -28.2628
   -28.2624 -28.2623 -28.2621 -28.2620  -7.4631  -7.4627  -7.4624  -7.4624
    -7.4621  -7.4618  -7.4376  -7.4372  -7.4372  -7.4369  -7.4368  -7.4365
    -7.4263  -7.4259  -7.4259  -7.4257  -7.4256  -7.4253  -7.4068  -7.4066
    -7.4065  -7.4062  -7.4062  -7.4060  -7.0283  -7.0279  -7.0279  -7.0276
    -7.0275  -7.0273  -7.0033  -7.0032  -7.0029  -7.0029  -7.0026  -7.0026
    -6.9771  -6.9769  -6.9767  -6.9766  -6.9765  -6.9763  -6.9402  -6.9401
    -6.9399  -6.9398  -6.9396  -6.9395  -6.8984  -6.8983  -6.8980  -6.8980
    -6.8978  -6.8977  -6.8465  -6.8464  -6.8461  -6.8461  -6.8459  -6.8459

          k = 0.0000 0.4918 0.0777 ( 79280 PWs)   bands (ev):

   -29.7806 -29.7806 -29.7800 -29.7800 -29.7799 -29.7799 -29.7783 -29.7783
   -29.7778 -29.7778 -29.7775 -29.7775 -29.7309 -29.7308 -29.7304 -29.7303
   -29.7302 -29.7302 -29.7298 -29.7297 -29.7293 -29.7292 -29.7290 -29.7289
   -28.3289 -28.3288 -28.3283 -28.3283 -28.3281 -28.3281 -28.3263 -28.3263
   -28.3258 -28.3258 -28.3255 -28.3255 -28.2868 -28.2868 -28.2862 -28.2862
   -28.2861 -28.2861 -28.2853 -28.2853 -28.2848 -28.2848 -28.2844 -28.2844
   -28.2639 -28.2638 -28.2634 -28.2634 -28.2633 -28.2632 -28.2628 -28.2628
   -28.2624 -28.2623 -28.2620 -28.2620  -7.4631  -7.4628  -7.4626  -7.4625
    -7.4623  -7.4620  -7.4384  -7.4380  -7.4380  -7.4377  -7.4376  -7.4373
    -7.4265  -7.4262  -7.4261  -7.4259  -7.4258  -7.4256  -7.4068  -7.4066
    -7.4064  -7.4063  -7.4062  -7.4060  -7.0290  -7.0287  -7.0286  -7.0283
    -7.0283  -7.0281  -7.0036  -7.0035  -7.0032  -7.0032  -7.0029  -7.0029
    -6.9771  -6.9770  -6.9767  -6.9766  -6.9765  -6.9764  -6.9400  -6.9399
    -6.9397  -6.9396  -6.9394  -6.9394  -6.8986  -6.8986  -6.8982  -6.8982
    -6.8980  -6.8980  -6.8461  -6.8460  -6.8457  -6.8457  -6.8455  -6.8455

          k = 0.0000 0.5132 0.0777 ( 79262 PWs)   bands (ev):

   -29.7806 -29.7806 -29.7800 -29.7800 -29.7799 -29.7799 -29.7783 -29.7783
   -29.7777 -29.7777 -29.7774 -29.7774 -29.7309 -29.7308 -29.7304 -29.7303
   -29.7302 -29.7302 -29.7297 -29.7297 -29.7293 -29.7292 -29.7289 -29.7289
   -28.3288 -28.3288 -28.3282 -28.3282 -28.3281 -28.3281 -28.3263 -28.3263
   -28.3257 -28.3257 -28.3254 -28.3254 -28.2868 -28.2868 -28.2862 -28.2862
   -28.2861 -28.2861 -28.2853 -28.2853 -28.2848 -28.2848 -28.2844 -28.2844
   -28.2639 -28.2638 -28.2634 -28.2633 -28.2632 -28.2632 -28.2628 -28.2628
   -28.2624 -28.2623 -28.2620 -28.2620  -7.4632  -7.4628  -7.4628  -7.4626
    -7.4624  -7.4622  -7.4389  -7.4387  -7.4385  -7.4383  -7.4383  -7.4380
    -7.4266  -7.4264  -7.4262  -7.4260  -7.4260  -7.4258  -7.4068  -7.4066
    -7.4064  -7.4063  -7.4062  -7.4060  -7.0296  -7.0294  -7.0292  -7.0290
    -7.0289  -7.0287  -7.0038  -7.0037  -7.0034  -7.0034  -7.0031  -7.0031
    -6.9771  -6.9770  -6.9767  -6.9766  -6.9765  -6.9764  -6.9399  -6.9398
    -6.9395  -6.9395  -6.9393  -6.9392  -6.8988  -6.8988  -6.8984  -6.8984
    -6.8982  -6.8982  -6.8457  -6.8457  -6.8454  -6.8454  -6.8452  -6.8452

          k = 0.0000 0.5346 0.0777 ( 79304 PWs)   bands (ev):

   -29.7805 -29.7805 -29.7800 -29.7800 -29.7798 -29.7798 -29.7782 -29.7782
   -29.7777 -29.7777 -29.7774 -29.7774 -29.7308 -29.7308 -29.7304 -29.7303
   -29.7302 -29.7302 -29.7297 -29.7297 -29.7293 -29.7292 -29.7289 -29.7289
   -28.3288 -28.3288 -28.3282 -28.3282 -28.3281 -28.3281 -28.3262 -28.3262
   -28.3257 -28.3257 -28.3254 -28.3254 -28.2868 -28.2868 -28.2863 -28.2863
   -28.2861 -28.2861 -28.2853 -28.2853 -28.2848 -28.2848 -28.2844 -28.2844
   -28.2638 -28.2638 -28.2634 -28.2633 -28.2632 -28.2632 -28.2628 -28.2628
   -28.2623 -28.2623 -28.2620 -28.2620  -7.4632  -7.4629  -7.4628  -7.4626
    -7.4626  -7.4623  -7.4394  -7.4392  -7.4389  -7.4387  -7.4387  -7.4385
    -7.4266  -7.4265  -7.4263  -7.4261  -7.4260  -7.4259  -7.4067  -7.4066
    -7.4064  -7.4063  -7.4062  -7.4061  -7.0300  -7.0298  -7.0296  -7.0294
    -7.0293  -7.0291  -7.0039  -7.0039  -7.0036  -7.0035  -7.0033  -7.0032
    -6.9771  -6.9771  -6.9767  -6.9767  -6.9765  -6.9765  -6.9397  -6.9397
    -6.9394  -6.9394  -6.9392  -6.9391  -6.8989  -6.8989  -6.8986  -6.8986
    -6.8983  -6.8983  -6.8455  -6.8455  -6.8452  -6.8452  -6.8450  -6.8449

          k = 0.0000 0.5560 0.0777 ( 79286 PWs)   bands (ev):

   -29.7805 -29.7805 -29.7800 -29.7800 -29.7798 -29.7798 -29.7782 -29.7782
   -29.7777 -29.7777 -29.7774 -29.7774 -29.7308 -29.7308 -29.7303 -29.7303
   -29.7302 -29.7302 -29.7297 -29.7297 -29.7293 -29.7293 -29.7289 -29.7289
   -28.3288 -28.3288 -28.3282 -28.3282 -28.3280 -28.3280 -28.3262 -28.3262
   -28.3257 -28.3257 -28.3254 -28.3254 -28.2868 -28.2868 -28.2863 -28.2863
   -28.2861 -28.2861 -28.2853 -28.2853 -28.2848 -28.2848 -28.2844 -28.2844
   -28.2638 -28.2638 -28.2633 -28.2633 -28.2632 -28.2632 -28.2628 -28.2628
   -28.2623 -28.2623 -28.2620 -28.2620  -7.4632  -7.4630  -7.4628  -7.4627
    -7.4626  -7.4624  -7.4396  -7.4395  -7.4392  -7.4391  -7.4389  -7.4388
    -7.4267  -7.4266  -7.4263  -7.4262  -7.4261  -7.4260  -7.4067  -7.4067
    -7.4064  -7.4063  -7.4061  -7.4061  -7.0302  -7.0301  -7.0298  -7.0297
    -7.0295  -7.0294  -7.0040  -7.0040  -7.0036  -7.0036  -7.0034  -7.0034
    -6.9771  -6.9771  -6.9767  -6.9767  -6.9765  -6.9765  -6.9397  -6.9396
    -6.9393  -6.9393  -6.9391  -6.9391  -6.8990  -6.8990  -6.8986  -6.8986
    -6.8984  -6.8984  -6.8454  -6.8454  -6.8450  -6.8450  -6.8448  -6.8448

          k = 0.0000 0.5774 0.0777 ( 79264 PWs)   bands (ev):

   -29.7805 -29.7805 -29.7800 -29.7800 -29.7798 -29.7798 -29.7782 -29.7782
   -29.7777 -29.7777 -29.7774 -29.7774 -29.7308 -29.7308 -29.7303 -29.7303
   -29.7302 -29.7302 -29.7297 -29.7297 -29.7293 -29.7293 -29.7289 -29.7289
   -28.3288 -28.3288 -28.3282 -28.3282 -28.3280 -28.3280 -28.3262 -28.3262
   -28.3257 -28.3257 -28.3254 -28.3254 -28.2868 -28.2868 -28.2863 -28.2863
   -28.2861 -28.2861 -28.2853 -28.2853 -28.2848 -28.2848 -28.2844 -28.2844
[...]
   -28.2859 -28.2859 -28.2850 -28.2850 -28.2845 -28.2845 -28.2842 -28.2842
   -28.2647 -28.2647 -28.2643 -28.2642 -28.2641 -28.2640 -28.2636 -28.2636
   -28.2632 -28.2631 -28.2628 -28.2628  -7.4581  -7.4577  -7.4577  -7.4575
    -7.4574  -7.4571  -7.4244  -7.4242  -7.4240  -7.4239  -7.4238  -7.4236
    -7.4146  -7.4143  -7.4142  -7.4140  -7.4139  -7.4137  -7.4048  -7.4046
    -7.4045  -7.4043  -7.4042  -7.4040  -7.0002  -6.9998  -6.9996  -6.9991
    -6.9987  -6.9985  -6.9935  -6.9932  -6.9929  -6.9929  -6.9925  -6.9923
    -6.9767  -6.9763  -6.9761  -6.9761  -6.9757  -6.9755  -6.9447  -6.9446
    -6.9443  -6.9442  -6.9441  -6.9440  -6.8836  -6.8833  -6.8832  -6.8830
    -6.8830  -6.8827  -6.8623  -6.8622  -6.8619  -6.8619  -6.8617  -6.8616

          k = 0.0323 0.0559-0.0000 ( 79023 PWs)   bands (ev):

   -29.7817 -29.7817 -29.7811 -29.7811 -29.7810 -29.7810 -29.7794 -29.7794
   -29.7789 -29.7789 -29.7785 -29.7785 -29.7311 -29.7311 -29.7307 -29.7306
   -29.7305 -29.7304 -29.7299 -29.7299 -29.7295 -29.7295 -29.7292 -29.7291
   -28.3306 -28.3306 -28.3301 -28.3300 -28.3299 -28.3299 -28.3281 -28.3281
   -28.3275 -28.3275 -28.3272 -28.3272 -28.2865 -28.2865 -28.2860 -28.2860
   -28.2859 -28.2859 -28.2850 -28.2850 -28.2845 -28.2845 -28.2842 -28.2842
   -28.2648 -28.2647 -28.2643 -28.2643 -28.2641 -28.2641 -28.2636 -28.2636
   -28.2632 -28.2632 -28.2628 -28.2628  -7.4579  -7.4577  -7.4575  -7.4573
    -7.4573  -7.4571  -7.4241  -7.4241  -7.4237  -7.4237  -7.4235  -7.4235
    -7.4142  -7.4141  -7.4139  -7.4137  -7.4136  -7.4135  -7.4046  -7.4045
    -7.4043  -7.4041  -7.4040  -7.4039  -6.9991  -6.9987  -6.9986  -6.9985
    -6.9982  -6.9980  -6.9929  -6.9926  -6.9925  -6.9923  -6.9922  -6.9919
    -6.9765  -6.9762  -6.9762  -6.9760  -6.9758  -6.9756  -6.9447  -6.9447
    -6.9444  -6.9443  -6.9442  -6.9441  -6.8826  -6.8825  -6.8823  -6.8822
    -6.8821  -6.8819  -6.8630  -6.8630  -6.8627  -6.8626  -6.8625  -6.8624

          k = 0.0215 0.0372-0.0000 ( 78973 PWs)   bands (ev):

   -29.7817 -29.7817 -29.7811 -29.7811 -29.7810 -29.7810 -29.7794 -29.7794
   -29.7789 -29.7789 -29.7786 -29.7786 -29.7311 -29.7311 -29.7307 -29.7306
   -29.7305 -29.7305 -29.7299 -29.7299 -29.7295 -29.7295 -29.7292 -29.7291
   -28.3307 -28.3307 -28.3301 -28.3301 -28.3299 -28.3299 -28.3281 -28.3281
   -28.3276 -28.3276 -28.3273 -28.3273 -28.2865 -28.2865 -28.2860 -28.2860
   -28.2859 -28.2859 -28.2850 -28.2850 -28.2845 -28.2845 -28.2842 -28.2842
   -28.2648 -28.2647 -28.2643 -28.2643 -28.2641 -28.2641 -28.2636 -28.2636
   -28.2632 -28.2632 -28.2629 -28.2628  -7.4578  -7.4576  -7.4574  -7.4573
    -7.4571  -7.4570  -7.4239  -7.4239  -7.4236  -7.4235  -7.4233  -7.4233
    -7.4139  -7.4139  -7.4136  -7.4136  -7.4134  -7.4133  -7.4044  -7.4043
    -7.4041  -7.4040  -7.4039  -7.4038  -6.9983  -6.9982  -6.9979  -6.9978
    -6.9977  -6.9976  -6.9925  -6.9922  -6.9921  -6.9919  -6.9918  -6.9916
    -6.9765  -6.9763  -6.9761  -6.9759  -6.9759  -6.9757  -6.9448  -6.9448
    -6.9444  -6.9444  -6.9442  -6.9442  -6.8819  -6.8819  -6.8816  -6.8815
    -6.8813  -6.8813  -6.8636  -6.8636  -6.8633  -6.8633  -6.8631  -6.8630

          k = 0.0108 0.0186-0.0000 ( 78965 PWs)   bands (ev):

   -29.7817 -29.7817 -29.7812 -29.7812 -29.7810 -29.7810 -29.7794 -29.7794
   -29.7789 -29.7789 -29.7786 -29.7786 -29.7311 -29.7311 -29.7306 -29.7306
   -29.7305 -29.7305 -29.7299 -29.7299 -29.7295 -29.7295 -29.7292 -29.7291
   -28.3307 -28.3307 -28.3301 -28.3301 -28.3300 -28.3300 -28.3281 -28.3281
   -28.3276 -28.3276 -28.3273 -28.3273 -28.2865 -28.2865 -28.2860 -28.2860
   -28.2859 -28.2859 -28.2850 -28.2850 -28.2845 -28.2845 -28.2842 -28.2842
   -28.2648 -28.2647 -28.2643 -28.2643 -28.2641 -28.2641 -28.2636 -28.2636
   -28.2632 -28.2632 -28.2629 -28.2628  -7.4577  -7.4576  -7.4573  -7.4573
    -7.4571  -7.4570  -7.4238  -7.4238  -7.4234  -7.4234  -7.4232  -7.4232
    -7.4138  -7.4138  -7.4135  -7.4135  -7.4132  -7.4132  -7.4043  -7.4043
    -7.4040  -7.4039  -7.4037  -7.4037  -6.9979  -6.9979  -6.9975  -6.9975
    -6.9973  -6.9973  -6.9922  -6.9920  -6.9918  -6.9917  -6.9916  -6.9914
    -6.9764  -6.9763  -6.9761  -6.9760  -6.9759  -6.9758  -6.9448  -6.9448
    -6.9445  -6.9445  -6.9442  -6.9442  -6.8815  -6.8815  -6.8811  -6.8811
    -6.8809  -6.8809  -6.8640  -6.8640  -6.8637  -6.8637  -6.8635  -6.8634

          k = 0.0000 0.0000 0.0000 ( 78925 PWs)   bands (ev):

   -29.7817 -29.7817 -29.7812 -29.7812 -29.7810 -29.7810 -29.7794 -29.7794
   -29.7789 -29.7789 -29.7786 -29.7786 -29.7311 -29.7311 -29.7306 -29.7306
   -29.7305 -29.7305 -29.7299 -29.7299 -29.7295 -29.7295 -29.7292 -29.7292
   -28.3307 -28.3307 -28.3301 -28.3301 -28.3300 -28.3300 -28.3281 -28.3281
   -28.3276 -28.3276 -28.3273 -28.3273 -28.2865 -28.2865 -28.2860 -28.2860
   -28.2859 -28.2859 -28.2850 -28.2850 -28.2845 -28.2845 -28.2842 -28.2842
   -28.2648 -28.2648 -28.2643 -28.2643 -28.2641 -28.2641 -28.2636 -28.2636
   -28.2632 -28.2632 -28.2629 -28.2629  -7.4576  -7.4576  -7.4573  -7.4573
    -7.4570  -7.4570  -7.4238  -7.4238  -7.4234  -7.4234  -7.4232  -7.4232
    -7.4138  -7.4138  -7.4134  -7.4134  -7.4132  -7.4132  -7.4043  -7.4043
    -7.4039  -7.4039  -7.4037  -7.4037  -6.9978  -6.9978  -6.9974  -6.9974
    -6.9972  -6.9972  -6.9920  -6.9920  -6.9917  -6.9917  -6.9914  -6.9914
    -6.9764  -6.9764  -6.9760  -6.9760  -6.9758  -6.9758  -6.9448  -6.9448
    -6.9445  -6.9445  -6.9443  -6.9443  -6.8813  -6.8813  -6.8810  -6.8810
    -6.8807  -6.8807  -6.8641  -6.8641  -6.8638  -6.8638  -6.8636  -6.8636

          k = 0.0000 0.5774 0.0777 ( 79264 PWs)   bands (ev):

   -29.7805 -29.7805 -29.7800 -29.7800 -29.7798 -29.7798 -29.7782 -29.7782
   -29.7777 -29.7777 -29.7774 -29.7774 -29.7308 -29.7308 -29.7303 -29.7303
   -29.7302 -29.7302 -29.7297 -29.7297 -29.7293 -29.7293 -29.7289 -29.7289
   -28.3288 -28.3288 -28.3282 -28.3282 -28.3280 -28.3280 -28.3262 -28.3262
   -28.3257 -28.3257 -28.3254 -28.3254 -28.2868 -28.2868 -28.2863 -28.2863
   -28.2861 -28.2861 -28.2853 -28.2853 -28.2848 -28.2848 -28.2844 -28.2844
   -28.2638 -28.2638 -28.2633 -28.2633 -28.2632 -28.2632 -28.2628 -28.2628
   -28.2623 -28.2623 -28.2620 -28.2620  -7.4631  -7.4631  -7.4628  -7.4628
    -7.4625  -7.4625  -7.4396  -7.4396  -7.4392  -7.4392  -7.4390  -7.4390
    -7.4266  -7.4266  -7.4263  -7.4263  -7.4261  -7.4261  -7.4067  -7.4067
    -7.4064  -7.4064  -7.4061  -7.4061  -7.0302  -7.0302  -7.0298  -7.0298
    -7.0296  -7.0296  -7.0040  -7.0040  -7.0037  -7.0037  -7.0034  -7.0034
    -6.9771  -6.9771  -6.9767  -6.9767  -6.9765  -6.9765  -6.9396  -6.9396
    -6.9393  -6.9393  -6.9391  -6.9391  -6.8990  -6.8990  -6.8987  -6.8987
    -6.8984  -6.8984  -6.8453  -6.8453  -6.8450  -6.8450  -6.8448  -6.8448

          k = 0.0000 0.5774 0.0583 ( 79268 PWs)   bands (ev):

   -29.7805 -29.7805 -29.7800 -29.7800 -29.7798 -29.7798 -29.7782 -29.7782
   -29.7777 -29.7777 -29.7774 -29.7774 -29.7308 -29.7308 -29.7303 -29.7303
   -29.7302 -29.7302 -29.7297 -29.7297 -29.7293 -29.7293 -29.7289 -29.7289
   -28.3288 -28.3288 -28.3282 -28.3282 -28.3280 -28.3280 -28.3262 -28.3262
   -28.3257 -28.3257 -28.3254 -28.3254 -28.2868 -28.2868 -28.2863 -28.2863
   -28.2861 -28.2861 -28.2853 -28.2853 -28.2848 -28.2848 -28.2844 -28.2844
   -28.2638 -28.2638 -28.2633 -28.2633 -28.2632 -28.2632 -28.2628 -28.2628
   -28.2623 -28.2623 -28.2620 -28.2620  -7.4631  -7.4631  -7.4628  -7.4628
    -7.4625  -7.4625  -7.4396  -7.4396  -7.4392  -7.4392  -7.4390  -7.4390
    -7.4266  -7.4266  -7.4263  -7.4263  -7.4261  -7.4261  -7.4067  -7.4067
    -7.4064  -7.4064  -7.4061  -7.4061  -7.0302  -7.0302  -7.0298  -7.0298
    -7.0296  -7.0296  -7.0041  -7.0040  -7.0037  -7.0037  -7.0034  -7.0034
    -6.9771  -6.9771  -6.9767  -6.9767  -6.9765  -6.9765  -6.9396  -6.9396
    -6.9393  -6.9393  -6.9391  -6.9391  -6.8990  -6.8990  -6.8987  -6.8987
    -6.8984  -6.8984  -6.8453  -6.8453  -6.8450  -6.8450  -6.8448  -6.8448

          k = 0.0000 0.5774 0.0389 ( 79254 PWs)   bands (ev):

   -29.7805 -29.7805 -29.7800 -29.7800 -29.7798 -29.7798 -29.7782 -29.7782
   -29.7777 -29.7777 -29.7774 -29.7774 -29.7308 -29.7308 -29.7303 -29.7303
   -29.7302 -29.7302 -29.7297 -29.7297 -29.7293 -29.7293 -29.7289 -29.7289
   -28.3288 -28.3288 -28.3282 -28.3282 -28.3280 -28.3280 -28.3262 -28.3262
   -28.3257 -28.3257 -28.3254 -28.3254 -28.2868 -28.2868 -28.2863 -28.2863
   -28.2861 -28.2861 -28.2853 -28.2853 -28.2848 -28.2848 -28.2844 -28.2844
   -28.2638 -28.2638 -28.2633 -28.2633 -28.2632 -28.2632 -28.2628 -28.2628
   -28.2623 -28.2623 -28.2620 -28.2620  -7.4631  -7.4631  -7.4628  -7.4628
    -7.4625  -7.4625  -7.4396  -7.4396  -7.4392  -7.4392  -7.4390  -7.4389
    -7.4266  -7.4266  -7.4263  -7.4263  -7.4261  -7.4261  -7.4067  -7.4067
    -7.4064  -7.4064  -7.4061  -7.4061  -7.0302  -7.0302  -7.0298  -7.0298
    -7.0296  -7.0296  -7.0041  -7.0040  -7.0037  -7.0037  -7.0034  -7.0034
    -6.9771  -6.9771  -6.9767  -6.9767  -6.9765  -6.9765  -6.9396  -6.9396
    -6.9393  -6.9393  -6.9391  -6.9391  -6.8990  -6.8990  -6.8987  -6.8987
    -6.8984  -6.8984  -6.8453  -6.8453  -6.8450  -6.8450  -6.8448  -6.8448

          k = 0.0000 0.5774 0.0194 ( 79286 PWs)   bands (ev):

   -29.7805 -29.7805 -29.7800 -29.7800 -29.7798 -29.7798 -29.7782 -29.7782
   -29.7777 -29.7777 -29.7774 -29.7774 -29.7308 -29.7308 -29.7303 -29.7303
   -29.7302 -29.7302 -29.7297 -29.7297 -29.7293 -29.7293 -29.7289 -29.7289
   -28.3288 -28.3288 -28.3282 -28.3282 -28.3280 -28.3280 -28.3262 -28.3262
   -28.3257 -28.3257 -28.3254 -28.3254 -28.2868 -28.2868 -28.2863 -28.2863
   -28.2861 -28.2861 -28.2853 -28.2853 -28.2848 -28.2848 -28.2844 -28.2844
   -28.2638 -28.2638 -28.2633 -28.2633 -28.2632 -28.2632 -28.2628 -28.2628
   -28.2623 -28.2623 -28.2620 -28.2620  -7.4631  -7.4631  -7.4628  -7.4628
    -7.4625  -7.4625  -7.4396  -7.4396  -7.4392  -7.4392  -7.4389  -7.4389
    -7.4266  -7.4266  -7.4263  -7.4263  -7.4261  -7.4261  -7.4067  -7.4067
    -7.4064  -7.4064  -7.4061  -7.4061  -7.0302  -7.0302  -7.0298  -7.0298
    -7.0296  -7.0296  -7.0041  -7.0041  -7.0037  -7.0037  -7.0034  -7.0034
    -6.9771  -6.9771  -6.9767  -6.9767  -6.9765  -6.9765  -6.9396  -6.9396
    -6.9393  -6.9393  -6.9391  -6.9391  -6.8990  -6.8990  -6.8987  -6.8987
    -6.8984  -6.8984  -6.8453  -6.8453  -6.8450  -6.8450  -6.8448  -6.8448

          k = 0.0000 0.5774-0.0000 ( 79298 PWs)   bands (ev):

   -29.7805 -29.7805 -29.7800 -29.7800 -29.7798 -29.7798 -29.7782 -29.7782
   -29.7777 -29.7777 -29.7774 -29.7774 -29.7308 -29.7308 -29.7303 -29.7303
   -29.7302 -29.7302 -29.7297 -29.7297 -29.7293 -29.7293 -29.7289 -29.7289
   -28.3288 -28.3288 -28.3282 -28.3282 -28.3280 -28.3280 -28.3262 -28.3262
   -28.3257 -28.3257 -28.3254 -28.3254 -28.2868 -28.2868 -28.2863 -28.2863
   -28.2861 -28.2861 -28.2853 -28.2853 -28.2848 -28.2848 -28.2844 -28.2844
   -28.2638 -28.2638 -28.2633 -28.2633 -28.2632 -28.2632 -28.2628 -28.2628
   -28.2623 -28.2623 -28.2620 -28.2620  -7.4631  -7.4631  -7.4628  -7.4628
    -7.4625  -7.4625  -7.4396  -7.4396  -7.4392  -7.4392  -7.4389  -7.4389
    -7.4266  -7.4266  -7.4263  -7.4263  -7.4261  -7.4261  -7.4067  -7.4067
    -7.4064  -7.4064  -7.4061  -7.4061  -7.0302  -7.0302  -7.0298  -7.0298
    -7.0296  -7.0296  -7.0041  -7.0041  -7.0037  -7.0037  -7.0034  -7.0034
    -6.9771  -6.9771  -6.9767  -6.9767  -6.9765  -6.9765  -6.9396  -6.9396
    -6.9393  -6.9393  -6.9391  -6.9391  -6.8990  -6.8990  -6.8987  -6.8987
    -6.8984  -6.8984  -6.8453  -6.8453  -6.8450  -6.8450  -6.8448  -6.8448

          k = 0.3333 0.5773 0.0777 ( 79236 PWs)   bands (ev):

   -29.7806 -29.7802 -29.7800 -29.7799 -29.7796 -29.7795 -29.7783 -29.7779
   -29.7777 -29.7774 -29.7774 -29.7770 -29.7308 -29.7308 -29.7303 -29.7303
   -29.7302 -29.7301 -29.7297 -29.7297 -29.7293 -29.7292 -29.7289 -29.7289
   -28.3287 -28.3282 -28.3281 -28.3280 -28.3277 -28.3275 -28.3262 -28.3257
   -28.3256 -28.3253 -28.3252 -28.3249 -28.2870 -28.2866 -28.2865 -28.2863
   -28.2861 -28.2860 -28.2855 -28.2852 -28.2850 -28.2847 -28.2847 -28.2843
   -28.2637 -28.2637 -28.2632 -28.2632 -28.2631 -28.2631 -28.2627 -28.2627
   -28.2622 -28.2622 -28.2619 -28.2618  -7.4666  -7.4663  -7.4660  -7.4533
    -7.4529  -7.4527  -7.4520  -7.4515  -7.4513  -7.4476  -7.4473  -7.4471
    -7.4345  -7.4342  -7.4339  -7.4089  -7.4089  -7.4086  -7.4085  -7.4084
    -7.4083  -7.4032  -7.4029  -7.4027  -7.0434  -7.0430  -7.0428  -7.0231
    -7.0227  -7.0225  -7.0193  -7.0190  -7.0187  -7.0004  -7.0000  -6.9998
    -6.9893  -6.9889  -6.9887  -6.9566  -6.9562  -6.9560  -6.9414  -6.9410
    -6.9408  -6.9321  -6.9317  -6.9315  -6.9124  -6.9120  -6.9118  -6.8960
    -6.8957  -6.8955  -6.8459  -6.8456  -6.8454  -6.8428  -6.8425  -6.8422

          k = 0.3333 0.5773 0.0583 ( 79278 PWs)   bands (ev):

   -29.7806 -29.7802 -29.7800 -29.7799 -29.7796 -29.7795 -29.7783 -29.7779
   -29.7777 -29.7774 -29.7774 -29.7770 -29.7308 -29.7308 -29.7303 -29.7303
   -29.7302 -29.7301 -29.7297 -29.7297 -29.7293 -29.7292 -29.7289 -29.7289
   -28.3287 -28.3282 -28.3281 -28.3280 -28.3277 -28.3275 -28.3262 -28.3257
   -28.3256 -28.3253 -28.3252 -28.3249 -28.2870 -28.2866 -28.2865 -28.2863
   -28.2861 -28.2860 -28.2855 -28.2852 -28.2850 -28.2847 -28.2847 -28.2843
   -28.2637 -28.2637 -28.2632 -28.2632 -28.2631 -28.2631 -28.2627 -28.2627
   -28.2622 -28.2622 -28.2619 -28.2618  -7.4666  -7.4663  -7.4660  -7.4533
    -7.4529  -7.4527  -7.4520  -7.4515  -7.4513  -7.4476  -7.4473  -7.4471
    -7.4345  -7.4342  -7.4339  -7.4089  -7.4089  -7.4086  -7.4085  -7.4084
    -7.4083  -7.4032  -7.4029  -7.4027  -7.0434  -7.0430  -7.0428  -7.0231
    -7.0227  -7.0225  -7.0193  -7.0190  -7.0187  -7.0004  -7.0000  -6.9998
    -6.9893  -6.9889  -6.9887  -6.9566  -6.9562  -6.9560  -6.9414  -6.9410
    -6.9408  -6.9321  -6.9317  -6.9315  -6.9124  -6.9120  -6.9118  -6.8960
    -6.8957  -6.8955  -6.8459  -6.8456  -6.8454  -6.8428  -6.8425  -6.8422

          k = 0.3333 0.5773 0.0389 ( 79230 PWs)   bands (ev):

   -29.7806 -29.7802 -29.7800 -29.7799 -29.7796 -29.7795 -29.7783 -29.7779
   -29.7777 -29.7774 -29.7774 -29.7770 -29.7308 -29.7308 -29.7303 -29.7303
   -29.7302 -29.7301 -29.7297 -29.7297 -29.7293 -29.7292 -29.7289 -29.7289
   -28.3287 -28.3282 -28.3281 -28.3280 -28.3277 -28.3275 -28.3262 -28.3257
   -28.3256 -28.3253 -28.3252 -28.3249 -28.2870 -28.2866 -28.2865 -28.2863
   -28.2861 -28.2860 -28.2855 -28.2852 -28.2850 -28.2847 -28.2847 -28.2843
   -28.2637 -28.2637 -28.2632 -28.2632 -28.2631 -28.2631 -28.2627 -28.2627
   -28.2622 -28.2622 -28.2619 -28.2618  -7.4666  -7.4663  -7.4660  -7.4533
    -7.4529  -7.4527  -7.4520  -7.4515  -7.4513  -7.4476  -7.4473  -7.4471
    -7.4345  -7.4342  -7.4339  -7.4089  -7.4089  -7.4086  -7.4085  -7.4084
    -7.4083  -7.4032  -7.4029  -7.4027  -7.0434  -7.0430  -7.0428  -7.0231
    -7.0227  -7.0225  -7.0193  -7.0190  -7.0187  -7.0004  -7.0000  -6.9998
    -6.9893  -6.9889  -6.9887  -6.9566  -6.9562  -6.9560  -6.9414  -6.9410
    -6.9408  -6.9321  -6.9317  -6.9315  -6.9124  -6.9120  -6.9118  -6.8960
    -6.8957  -6.8955  -6.8459  -6.8456  -6.8454  -6.8428  -6.8425  -6.8422

          k = 0.3333 0.5773 0.0194 ( 79254 PWs)   bands (ev):

   -29.7806 -29.7802 -29.7800 -29.7799 -29.7796 -29.7795 -29.7783 -29.7779
   -29.7777 -29.7774 -29.7774 -29.7770 -29.7308 -29.7308 -29.7303 -29.7303
   -29.7302 -29.7301 -29.7297 -29.7297 -29.7293 -29.7292 -29.7289 -29.7289
   -28.3287 -28.3282 -28.3281 -28.3280 -28.3277 -28.3275 -28.3262 -28.3257
   -28.3256 -28.3253 -28.3252 -28.3249 -28.2870 -28.2866 -28.2865 -28.2863
   -28.2861 -28.2860 -28.2855 -28.2852 -28.2850 -28.2847 -28.2847 -28.2843
   -28.2637 -28.2637 -28.2632 -28.2632 -28.2631 -28.2631 -28.2627 -28.2627
   -28.2622 -28.2622 -28.2619 -28.2618  -7.4666  -7.4663  -7.4660  -7.4533
    -7.4529  -7.4527  -7.4520  -7.4515  -7.4513  -7.4476  -7.4473  -7.4471
    -7.4345  -7.4342  -7.4339  -7.4089  -7.4089  -7.4086  -7.4085  -7.4084
    -7.4083  -7.4032  -7.4029  -7.4027  -7.0434  -7.0430  -7.0428  -7.0231
    -7.0227  -7.0225  -7.0193  -7.0190  -7.0187  -7.0004  -7.0000  -6.9998
    -6.9893  -6.9889  -6.9887  -6.9566  -6.9562  -6.9560  -6.9414  -6.9410
    -6.9408  -6.9321  -6.9317  -6.9315  -6.9124  -6.9120  -6.9118  -6.8960
    -6.8957  -6.8955  -6.8459  -6.8456  -6.8454  -6.8428  -6.8425  -6.8422

          k = 0.3333 0.5773-0.0000 ( 79311 PWs)   bands (ev):

   -29.7806 -29.7802 -29.7800 -29.7799 -29.7796 -29.7795 -29.7783 -29.7779
   -29.7777 -29.7774 -29.7774 -29.7770 -29.7308 -29.7308 -29.7303 -29.7303
   -29.7302 -29.7301 -29.7297 -29.7297 -29.7293 -29.7292 -29.7289 -29.7289
   -28.3287 -28.3282 -28.3281 -28.3280 -28.3277 -28.3275 -28.3262 -28.3257
   -28.3256 -28.3253 -28.3252 -28.3249 -28.2870 -28.2866 -28.2865 -28.2863
   -28.2861 -28.2860 -28.2855 -28.2852 -28.2850 -28.2847 -28.2847 -28.2843
   -28.2637 -28.2637 -28.2632 -28.2632 -28.2631 -28.2631 -28.2627 -28.2627
   -28.2622 -28.2622 -28.2619 -28.2618  -7.4666  -7.4663  -7.4660  -7.4533
    -7.4529  -7.4527  -7.4520  -7.4515  -7.4513  -7.4476  -7.4473  -7.4471
    -7.4345  -7.4342  -7.4339  -7.4089  -7.4089  -7.4086  -7.4085  -7.4084
    -7.4083  -7.4032  -7.4029  -7.4027  -7.0434  -7.0430  -7.0428  -7.0231
    -7.0227  -7.0225  -7.0193  -7.0190  -7.0187  -7.0004  -7.0000  -6.9998
    -6.9893  -6.9889  -6.9887  -6.9566  -6.9562  -6.9560  -6.9414  -6.9410
    -6.9408  -6.9321  -6.9317  -6.9315  -6.9124  -6.9120  -6.9118  -6.8960
    -6.8957  -6.8955  -6.8459  -6.8456  -6.8454  -6.8428  -6.8425  -6.8422

     Writing output data file GaTegamma.save
 
     init_run     :      1.13s CPU      1.37s WALL (       1 calls)
     electrons    :   2120.68s CPU   2213.14s WALL (       1 calls)

     Called by init_run:
     wfcinit      :      0.00s CPU      0.00s WALL (       1 calls)
     wfcinit:atom :      0.80s CPU      1.18s WALL (     160 calls)
     wfcinit:wfcr :    189.88s CPU    197.43s WALL (     160 calls)
     potinit      :      0.13s CPU      0.16s WALL (       1 calls)

     Called by electrons:
     c_bands      :   2120.67s CPU   2213.14s WALL (       1 calls)
     v_of_rho     :      0.02s CPU      0.03s WALL (       1 calls)
     v_h          :      0.00s CPU      0.00s WALL (       1 calls)
     v_xc         :      0.02s CPU      0.02s WALL (       1 calls)

     Called by c_bands:
     init_us_2    :      0.60s CPU      0.65s WALL (     160 calls)
     cegterg      :   1876.93s CPU   1953.51s WALL (     160 calls)

     Called by sum_band:

     Called by *egterg:
     h_psi        :   1352.25s CPU   1399.52s WALL (    2746 calls)
     g_psi        :      7.95s CPU      7.96s WALL (    2426 calls)
     cdiaghg      :    174.27s CPU    193.09s WALL (    2586 calls)
     cegterg:over :    209.73s CPU    214.79s WALL (    2426 calls)
     cegterg:upda :    177.78s CPU    185.28s WALL (    2426 calls)
     cegterg:last :    100.72s CPU    103.10s WALL (     796 calls)
     cdiaghg:chol :      9.16s CPU      9.16s WALL (    2586 calls)
     cdiaghg:inve :      8.26s CPU      8.27s WALL (    2586 calls)
     cdiaghg:para :     32.13s CPU     47.78s WALL (    5172 calls)

     Called by h_psi:
     h_psi:pot    :   1343.03s CPU   1390.26s WALL (    2746 calls)
     h_psi:calbec :    145.08s CPU    148.45s WALL (    2746 calls)
     vloc_psi     :   1056.46s CPU   1096.48s WALL (    2746 calls)
     add_vuspsi   :    141.46s CPU    145.31s WALL (    2746 calls)

     General routines
     calbec       :    145.08s CPU    148.44s WALL (    2746 calls)
     fft          :      0.02s CPU      0.02s WALL (      13 calls)
     fftw         :   1003.41s CPU   1042.76s WALL ( 1154696 calls)
     davcio       :      0.14s CPU      6.65s WALL (     160 calls)
 
     Parallel routines
     fft_scatter  :    757.27s CPU    771.27s WALL ( 1154709 calls)
 
     PWSCF        : 35m23.86s CPU    36m58.86s WALL

 
   This run was terminated on:  13:25:57   7Apr2022            

=------------------------------------------------------------------------------=
   JOB DONE.
=------------------------------------------------------------------------------=
