
     Program BANDS v.6.1 (svn rev. 13369) starts on  7Apr2022 at 13:25:59 

     This program is part of the open-source Quantum ESPRESSO suite
     for quantum simulation of materials; please cite
         "P. Giannozzi et al., J. Phys.:Condens. Matter 21 395502 (2009);
          URL http://www.quantum-espresso.org", 
     in publications or presentations arising from this work. More details at
     http://www.quantum-espresso.org/quote

     Parallel version (MPI), running on    48 processors
     R & G space division:  proc/nbgrp/npool/nimage =      48

     Reading data from directory:
     /share/inl/marcel/TB-SO/GaTegamma_outdir/GaTegamma.save

   Info: using nr1, nr2, nr3 values from input

   Info: using nr1, nr2, nr3 values from input

     IMPORTANT: XC functional enforced from input :
     Exchange-correlation      = SLA+PW+PSX+PSC ( 1  4 10  8 0 0)
     Any further DFT definition will be discarded
     Please, verify this is what you really want

 
     Parallelization info
     --------------------
     sticks:   dense  smooth     PW     G-vecs:    dense   smooth      PW
     Min          51      51     14                13187    13187    1872
     Max          52      52     15                13219    13219    1896
     Sum        2455    2455    673               633693   633693   90491
 
     high-symmetry point:  0.0000 0.0000 0.0777   x coordinate   0.0000
     high-symmetry point:  0.0000 0.5774 0.0777   x coordinate   0.5774
     high-symmetry point:  0.3333 0.5773 0.0777   x coordinate   0.9107
     high-symmetry point:  0.0000 0.0000 0.0777   x coordinate   1.5773
     high-symmetry point:  0.0000 0.0000 0.0000   x coordinate   1.6550
     high-symmetry point:  0.0000 0.5774-0.0000   x coordinate   2.2324
     high-symmetry point:  0.3333 0.5773-0.0000   x coordinate   2.5657
     high-symmetry point:  0.0000 0.0000 0.0000   x coordinate   3.2324
     high-symmetry point:  0.0000 0.5774 0.0777   x coordinate   3.2324
     high-symmetry point:  0.0000 0.5774-0.0000   x coordinate   3.3101
     high-symmetry point:  0.3333 0.5773 0.0777   x coordinate   3.3101
     high-symmetry point:  0.3333 0.5773-0.0000   x coordinate   3.3878

     Plottable bands (eV) written to file GaTegamma.bands.dat.gnu
     Bands written to file GaTegamma.bands.dat

 **************************************************************************

                    xk=(   0.00000,   0.00000,   0.07771  )

     double point group C_3v (3m)  
     there are  6 classes and  3 irreducible representations
     the character table:

       E     -E    2C3   -2C3  3s_v  -3s_v
                                          
G_4    2.00 -2.00  1.00 -1.00  0.00  0.00
G_5    1.00 -1.00 -1.00  1.00  0.00  0.00
G_6    1.00 -1.00 -1.00  1.00  0.00  0.00

     imaginary part

       E     -E    2C3   -2C3  3s_v  -3s_v
                                          
G_4    0.00  0.00  0.00  0.00  0.00  0.00
G_5    0.00  0.00  0.00  0.00  1.00 -1.00
G_6    0.00  0.00  0.00  0.00 -1.00  1.00

     the symmetry operations in each class and the name of the first element:

     E             1
                                                                 
     -E           -1
                                                                 
     2C3           2    3
                                                                 
     -2C3         -2   -3
                                                                 
     3s_v          4   -5   -6
                                                                 
     3s_v          5    6   -4
                                                                 

     Band symmetry, C_3v (3m)   double point group:

     e(  1 -  2) =    -29.78172  eV     2   --> G_5   L_4      
     e(  1 -  2) =    -29.78172  eV     2   --> G_6   L_5      
     e(  3 -  4) =    -29.78116  eV     2   --> G_5   L_4      
     e(  3 -  4) =    -29.78116  eV     2   --> G_6   L_5      
     e(  5 -  6) =    -29.78102  eV     2   --> G_5   L_4      
     e(  5 -  6) =    -29.78102  eV     2   --> G_6   L_5      
     e(  7 -  8) =    -29.77942  eV     2   --> G_5   L_4      
     e(  7 -  8) =    -29.77942  eV     2   --> G_6   L_5      
     e(  9 - 10) =    -29.77890  eV     2   --> G_5   L_4      
     e(  9 - 10) =    -29.77890  eV     2   --> G_6   L_5      
     e( 11 - 12) =    -29.77858  eV     2   --> G_5   L_4      
     e( 11 - 12) =    -29.77858  eV     2   --> G_6   L_5      
     e( 13 - 14) =    -29.73111  eV     2   --> G_4   L_6      
     e( 15 - 16) =    -29.73064  eV     2   --> G_4   L_6      
     e( 17 - 18) =    -29.73047  eV     2   --> G_4   L_6      
     e( 19 - 20) =    -29.72994  eV     2   --> G_4   L_6      
     e( 21 - 22) =    -29.72950  eV     2   --> G_4   L_6      
     e( 23 - 24) =    -29.72915  eV     2   --> G_4   L_6      
     e( 25 - 26) =    -28.33068  eV     2   --> G_4   L_6      
     e( 27 - 28) =    -28.33011  eV     2   --> G_4   L_6      
     e( 29 - 30) =    -28.32997  eV     2   --> G_4   L_6      
     e( 31 - 32) =    -28.32813  eV     2   --> G_4   L_6      
     e( 33 - 34) =    -28.32760  eV     2   --> G_4   L_6      
     e( 35 - 36) =    -28.32729  eV     2   --> G_4   L_6      
     e( 37 - 38) =    -28.28654  eV     2   --> G_5   L_4      
     e( 37 - 38) =    -28.28654  eV     2   --> G_6   L_5      
     e( 39 - 40) =    -28.28604  eV     2   --> G_5   L_4      
     e( 39 - 40) =    -28.28604  eV     2   --> G_6   L_5      
     e( 41 - 42) =    -28.28588  eV     2   --> G_5   L_4      
     e( 41 - 42) =    -28.28588  eV     2   --> G_6   L_5      
     e( 43 - 44) =    -28.28498  eV     2   --> G_5   L_4      
     e( 43 - 44) =    -28.28498  eV     2   --> G_6   L_5      
     e( 45 - 46) =    -28.28452  eV     2   --> G_5   L_4      
     e( 45 - 46) =    -28.28452  eV     2   --> G_6   L_5      
     e( 47 - 48) =    -28.28418  eV     2   --> G_5   L_4      
     e( 47 - 48) =    -28.28418  eV     2   --> G_6   L_5      
     e( 49 - 50) =    -28.26476  eV     2   --> G_4   L_6      
     e( 51 - 52) =    -28.26431  eV     2   --> G_4   L_6      
     e( 53 - 54) =    -28.26413  eV     2   --> G_4   L_6      
     e( 55 - 56) =    -28.26363  eV     2   --> G_4   L_6      
     e( 57 - 58) =    -28.26321  eV     2   --> G_4   L_6      
     e( 59 - 60) =    -28.26285  eV     2   --> G_4   L_6      
     e( 61 - 62) =     -7.45762  eV     2   --> G_4   L_6      
     e( 63 - 64) =     -7.45727  eV     2   --> G_4   L_6      
     e( 65 - 66) =     -7.45701  eV     2   --> G_4   L_6      
     e( 67 - 68) =     -7.42380  eV     2   --> G_5   L_4      
     e( 67 - 68) =     -7.42380  eV     2   --> G_6   L_5      
     e( 69 - 70) =     -7.42342  eV     2   --> G_5   L_4      
     e( 69 - 70) =     -7.42342  eV     2   --> G_6   L_5      
     e( 71 - 72) =     -7.42320  eV     2   --> G_5   L_4      
     e( 71 - 72) =     -7.42320  eV     2   --> G_6   L_5      
     e( 73 - 74) =     -7.41376  eV     2   --> G_5   L_4      
     e( 73 - 74) =     -7.41376  eV     2   --> G_6   L_5      
     e( 75 - 76) =     -7.41342  eV     2   --> G_5   L_4      
     e( 75 - 76) =     -7.41342  eV     2   --> G_6   L_5      
     e( 77 - 78) =     -7.41319  eV     2   --> G_5   L_4      
     e( 77 - 78) =     -7.41319  eV     2   --> G_6   L_5      
     e( 79 - 80) =     -7.40428  eV     2   --> G_4   L_6      
     e( 81 - 82) =     -7.40394  eV     2   --> G_4   L_6      
     e( 83 - 84) =     -7.40369  eV     2   --> G_4   L_6      
     e( 85 - 86) =     -6.99777  eV     2   --> G_5   L_4      
     e( 85 - 86) =     -6.99777  eV     2   --> G_6   L_5      
     e( 87 - 88) =     -6.99741  eV     2   --> G_5   L_4      
     e( 87 - 88) =     -6.99741  eV     2   --> G_6   L_5      
     e( 89 - 90) =     -6.99717  eV     2   --> G_5   L_4      
     e( 89 - 90) =     -6.99717  eV     2   --> G_6   L_5      
     e( 91 - 92) =     -6.99202  eV     2   --> G_4   L_6      
     e( 93 - 94) =     -6.99166  eV     2   --> G_4   L_6      
     e( 95 - 96) =     -6.99142  eV     2   --> G_4   L_6      
     e( 97 - 98) =     -6.97640  eV     2   --> G_4   L_6      
     e( 99 -100) =     -6.97603  eV     2   --> G_4   L_6      
     e(101 -102) =     -6.97581  eV     2   --> G_4   L_6      
     e(103 -104) =     -6.94482  eV     2   --> G_4   L_6      
     e(105 -106) =     -6.94448  eV     2   --> G_4   L_6      
     e(107 -108) =     -6.94425  eV     2   --> G_4   L_6      
     e(109 -110) =     -6.88130  eV     2   --> G_5   L_4      
     e(109 -110) =     -6.88130  eV     2   --> G_6   L_5      
     e(111 -112) =     -6.88096  eV     2   --> G_5   L_4      
     e(111 -112) =     -6.88096  eV     2   --> G_6   L_5      
     e(113 -114) =     -6.88074  eV     2   --> G_5   L_4      
     e(113 -114) =     -6.88074  eV     2   --> G_6   L_5      
     e(115 -116) =     -6.86415  eV     2   --> G_4   L_6      
     e(117 -118) =     -6.86380  eV     2   --> G_4   L_6      
     e(119 -120) =     -6.86358  eV     2   --> G_4   L_6      

 **************************************************************************

 **************************************************************************

                    xk=(   0.00000,   0.02138,   0.07771  )

     double point group C_s (m)    
     there are  4 classes and  2 irreducible representations
     the character table:

       E     -E    s     -s   
                              
G_3    1.00 -1.00  0.00  0.00
G_4    1.00 -1.00  0.00  0.00

     imaginary part

       E     -E    s     -s   
                              
G_3    0.00  0.00  1.00 -1.00
G_4    0.00  0.00 -1.00  1.00

     the symmetry operations in each class and the name of the first element:

     E             1
                                                                 
     -E           -1
                                                                 
     s             2
                                                                 
     -s           -2
                                                                 

     Band symmetry, C_s (m)     double point group:

     e(  1 -  2) =    -29.78171  eV     2   --> G_3            
     e(  1 -  2) =    -29.78171  eV     2   --> G_4            
     e(  3 -  4) =    -29.78116  eV     2   --> G_3            
     e(  3 -  4) =    -29.78116  eV     2   --> G_4            
     e(  5 -  6) =    -29.78102  eV     2   --> G_3            
     e(  5 -  6) =    -29.78102  eV     2   --> G_4            
     e(  7 -  8) =    -29.77941  eV     2   --> G_3            
     e(  7 -  8) =    -29.77941  eV     2   --> G_4            
     e(  9 - 10) =    -29.77890  eV     2   --> G_3            
     e(  9 - 10) =    -29.77890  eV     2   --> G_4            
     e( 11 - 12) =    -29.77858  eV     2   --> G_3            
     e( 11 - 12) =    -29.77858  eV     2   --> G_4            
     e( 13 - 14) =    -29.73111  eV     2   --> G_3            
     e( 13 - 14) =    -29.73111  eV     2   --> G_4            
     e( 15 - 16) =    -29.73065  eV     2   --> G_3            
     e( 15 - 16) =    -29.73065  eV     2   --> G_4            
     e( 17 - 18) =    -29.73048  eV     2   --> G_3            
     e( 17 - 18) =    -29.73048  eV     2   --> G_4            
     e( 19 - 20) =    -29.72994  eV     2   --> G_3            
     e( 19 - 20) =    -29.72994  eV     2   --> G_4            
     e( 21 - 22) =    -29.72951  eV     2   --> G_3            
     e( 21 - 22) =    -29.72951  eV     2   --> G_4            
     e( 23 - 24) =    -29.72916  eV     2   --> G_3            
     e( 23 - 24) =    -29.72916  eV     2   --> G_4            
     e( 25 - 26) =    -28.33068  eV     2   --> G_3            
     e( 25 - 26) =    -28.33068  eV     2   --> G_4            
     e( 27 - 28) =    -28.33011  eV     2   --> G_3            
     e( 27 - 28) =    -28.33011  eV     2   --> G_4            
     e( 29 - 30) =    -28.32997  eV     2   --> G_3            
     e( 29 - 30) =    -28.32997  eV     2   --> G_4            
     e( 31 - 32) =    -28.32812  eV     2   --> G_3            
     e( 31 - 32) =    -28.32812  eV     2   --> G_4            
     e( 33 - 34) =    -28.32760  eV     2   --> G_3            
     e( 33 - 34) =    -28.32760  eV     2   --> G_4            
     e( 35 - 36) =    -28.32728  eV     2   --> G_3            
     e( 35 - 36) =    -28.32728  eV     2   --> G_4            
     e( 37 - 38) =    -28.28654  eV     2   --> G_3            
     e( 37 - 38) =    -28.28654  eV     2   --> G_4            
     e( 39 - 40) =    -28.28604  eV     2   --> G_3            
     e( 39 - 40) =    -28.28604  eV     2   --> G_4            
     e( 41 - 42) =    -28.28588  eV     2   --> G_3            
     e( 41 - 42) =    -28.28588  eV     2   --> G_4            
     e( 43 - 44) =    -28.28499  eV     2   --> G_3            
     e( 43 - 44) =    -28.28499  eV     2   --> G_4            
     e( 45 - 46) =    -28.28452  eV     2   --> G_3            
     e( 45 - 46) =    -28.28452  eV     2   --> G_4            
     e( 47 - 48) =    -28.28418  eV     2   --> G_3            
     e( 47 - 48) =    -28.28418  eV     2   --> G_4            
     e( 49 - 50) =    -28.26476  eV     2   --> G_3            
     e( 49 - 50) =    -28.26476  eV     2   --> G_4            
     e( 51 - 52) =    -28.26432  eV     2   --> G_3            
     e( 51 - 52) =    -28.26432  eV     2   --> G_4            
     e( 53 - 54) =    -28.26413  eV     2   --> G_3            
     e( 53 - 54) =    -28.26413  eV     2   --> G_4            
     e( 55 - 56) =    -28.26363  eV     2   --> G_3            
     e( 55 - 56) =    -28.26363  eV     2   --> G_4            
     e( 57 - 58) =    -28.26321  eV     2   --> G_3            
     e( 57 - 58) =    -28.26321  eV     2   --> G_4            
     e( 59 - 60) =    -28.26286  eV     2   --> G_3            
     e( 59 - 60) =    -28.26286  eV     2   --> G_4            
     e( 61 - 62) =     -7.45767  eV     2   --> G_3            
     e( 61 - 62) =     -7.45767  eV     2   --> G_4            
     e( 63 - 64) =     -7.45732  eV     2   --> G_3            
     e( 63 - 64) =     -7.45732  eV     2   --> G_4            
     e( 65 - 66) =     -7.45706  eV     2   --> G_3            
     e( 65 - 66) =     -7.45706  eV     2   --> G_4            
     e( 67 - 68) =     -7.42383  eV     2   --> G_3            
     e( 67 - 68) =     -7.42383  eV     2   --> G_4            
     e( 69 - 70) =     -7.42345  eV     2   --> G_3            
     e( 69 - 70) =     -7.42345  eV     2   --> G_4            
     e( 71 - 72) =     -7.42323  eV     2   --> G_3            
     e( 71 - 72) =     -7.42323  eV     2   --> G_4            
     e( 73 - 74) =     -7.41380  eV     2   --> G_3            
     e( 73 - 74) =     -7.41380  eV     2   --> G_4            
     e( 75 - 76) =     -7.41346  eV     2   --> G_3            
     e( 75 - 76) =     -7.41346  eV     2   --> G_4            
     e( 77 - 78) =     -7.41323  eV     2   --> G_3            
     e( 77 - 78) =     -7.41323  eV     2   --> G_4            
     e( 79 - 80) =     -7.40434  eV     2   --> G_3            
     e( 79 - 80) =     -7.40434  eV     2   --> G_4            
     e( 81 - 82) =     -7.40399  eV     2   --> G_3            
     e( 81 - 82) =     -7.40399  eV     2   --> G_4            
     e( 83 - 84) =     -7.40374  eV     2   --> G_3            
     e( 83 - 84) =     -7.40374  eV     2   --> G_4            
     e( 85 - 86) =     -6.99788  eV     2   --> G_3            
     e( 85 - 86) =     -6.99788  eV     2   --> G_4            
     e( 87 - 88) =     -6.99753  eV     2   --> G_3            
     e( 87 - 88) =     -6.99753  eV     2   --> G_4            
     e( 89 - 90) =     -6.99728  eV     2   --> G_3            
     e( 89 - 90) =     -6.99728  eV     2   --> G_4            
     e( 91 - 91) =     -6.99217  eV     1   --> G_3            
     e( 92 - 92) =     -6.99203  eV     1   --> G_4            
     e( 93 - 93) =     -6.99181  eV     1   --> G_3            
     e( 94 - 95) =     -6.99167  eV     2   --> G_3            
     e( 94 - 95) =     -6.99167  eV     2   --> G_4            
     e( 96 - 96) =     -6.99143  eV     1   --> G_4            
     e( 97 - 97) =     -6.97645  eV     1   --> G_4            
     e( 98 - 98) =     -6.97635  eV     1   --> G_3            
     e( 99 -100) =     -6.97608  eV     2   --> G_3            
     e( 99 -100) =     -6.97608  eV     2   --> G_4            
     e(101 -102) =     -6.97585  eV     2   --> G_3            
     e(101 -102) =     -6.97585  eV     2   --> G_4            
     e(103 -104) =     -6.94482  eV     2   --> G_3            
     e(103 -104) =     -6.94482  eV     2   --> G_4            
     e(105 -106) =     -6.94447  eV     2   --> G_3            
     e(105 -106) =     -6.94447  eV     2   --> G_4            
     e(107 -108) =     -6.94424  eV     2   --> G_3            
     e(107 -108) =     -6.94424  eV     2   --> G_4            
     e(109 -110) =     -6.88145  eV     2   --> G_3            
     e(109 -110) =     -6.88145  eV     2   --> G_4            
     e(111 -112) =     -6.88111  eV     2   --> G_3            
     e(111 -112) =     -6.88111  eV     2   --> G_4            
     e(113 -114) =     -6.88089  eV     2   --> G_3            
     e(113 -114) =     -6.88089  eV     2   --> G_4            
     e(115 -116) =     -6.86402  eV     2   --> G_3            
     e(115 -116) =     -6.86402  eV     2   --> G_4            
     e(117 -118) =     -6.86368  eV     2   --> G_3            
     e(117 -118) =     -6.86368  eV     2   --> G_4            
     e(119 -120) =     -6.86346  eV     2   --> G_3            
     e(119 -120) =     -6.86346  eV     2   --> G_4            

 **************************************************************************

 **************************************************************************

                    xk=(   0.00000,   0.04277,   0.07771  )

     Band symmetry, C_s (m)     double point group:

     e(  1 -  2) =    -29.78170  eV     2   --> G_3            
     e(  1 -  2) =    -29.78170  eV     2   --> G_4            
     e(  3 -  4) =    -29.78114  eV     2   --> G_3            
     e(  3 -  4) =    -29.78114  eV     2   --> G_4            
     e(  5 -  6) =    -29.78100  eV     2   --> G_3            
     e(  5 -  6) =    -29.78100  eV     2   --> G_4            
     e(  7 -  8) =    -29.77940  eV     2   --> G_3            
     e(  7 -  8) =    -29.77940  eV     2   --> G_4            
     e(  9 - 10) =    -29.77889  eV     2   --> G_3            
     e(  9 - 10) =    -29.77889  eV     2   --> G_4            
     e( 11 - 12) =    -29.77856  eV     2   --> G_3            
     e( 11 - 12) =    -29.77856  eV     2   --> G_4            
     e( 13 - 14) =    -29.73112  eV     2   --> G_3            
     e( 13 - 14) =    -29.73112  eV     2   --> G_4            
     e( 15 - 16) =    -29.73065  eV     2   --> G_3            
     e( 15 - 16) =    -29.73065  eV     2   --> G_4            
     e( 17 - 18) =    -29.73048  eV     2   --> G_3            
     e( 17 - 18) =    -29.73048  eV     2   --> G_4            
     e( 19 - 20) =    -29.72995  eV     2   --> G_3            
     e( 19 - 20) =    -29.72995  eV     2   --> G_4            
     e( 21 - 22) =    -29.72951  eV     2   --> G_3            
     e( 21 - 22) =    -29.72951  eV     2   --> G_4            
     e( 23 - 24) =    -29.72916  eV     2   --> G_3            
     e( 23 - 24) =    -29.72916  eV     2   --> G_4            
     e( 25 - 26) =    -28.33066  eV     2   --> G_3            
     e( 25 - 26) =    -28.33066  eV     2   --> G_4            
     e( 27 - 28) =    -28.33009  eV     2   --> G_3            
     e( 27 - 28) =    -28.33009  eV     2   --> G_4            
     e( 29 - 30) =    -28.32995  eV     2   --> G_3            
     e( 29 - 30) =    -28.32995  eV     2   --> G_4            
     e( 31 - 32) =    -28.32810  eV     2   --> G_3            
     e( 31 - 32) =    -28.32810  eV     2   --> G_4            
     e( 33 - 34) =    -28.32758  eV     2   --> G_3            
     e( 33 - 34) =    -28.32758  eV     2   --> G_4            
     e( 35 - 36) =    -28.32726  eV     2   --> G_3            
     e( 35 - 36) =    -28.32726  eV     2   --> G_4            
     e( 37 - 38) =    -28.28654  eV     2   --> G_3            
     e( 37 - 38) =    -28.28654  eV     2   --> G_4            
     e( 39 - 40) =    -28.28604  eV     2   --> G_3            
     e( 39 - 40) =    -28.28604  eV     2   --> G_4            
     e( 41 - 42) =    -28.28588  eV     2   --> G_3            
     e( 41 - 42) =    -28.28588  eV     2   --> G_4            
     e( 43 - 44) =    -28.28499  eV     2   --> G_3            
     e( 43 - 44) =    -28.28499  eV     2   --> G_4            
     e( 45 - 46) =    -28.28452  eV     2   --> G_3            
     e( 45 - 46) =    -28.28452  eV     2   --> G_4            
     e( 47 - 48) =    -28.28418  eV     2   --> G_3            
     e( 47 - 48) =    -28.28418  eV     2   --> G_4            
     e( 49 - 50) =    -28.26476  eV     2   --> G_3            
     e( 49 - 50) =    -28.26476  eV     2   --> G_4            
     e( 51 - 52) =    -28.26431  eV     2   --> G_3            
     e( 51 - 52) =    -28.26431  eV     2   --> G_4            
     e( 53 - 54) =    -28.26413  eV     2   --> G_3            
     e( 53 - 54) =    -28.26413  eV     2   --> G_4            
     e( 55 - 56) =    -28.26363  eV     2   --> G_3            
     e( 55 - 56) =    -28.26363  eV     2   --> G_4            
     e( 57 - 58) =    -28.26321  eV     2   --> G_3            
     e( 57 - 58) =    -28.26321  eV     2   --> G_4            
     e( 59 - 60) =    -28.26286  eV     2   --> G_3            
     e( 59 - 60) =    -28.26286  eV     2   --> G_4            
     e( 61 - 61) =     -7.45776  eV     1   --> G_4            
     e( 62 - 62) =     -7.45763  eV     1   --> G_3            
     e( 63 - 63) =     -7.45741  eV     1   --> G_4            
     e( 64 - 64) =     -7.45728  eV     1   --> G_3            
     e( 65 - 65) =     -7.45715  eV     1   --> G_4            
     e( 66 - 66) =     -7.45702  eV     1   --> G_3            
     e( 67 - 68) =     -7.42393  eV     2   --> G_3            
     e( 67 - 68) =     -7.42393  eV     2   --> G_4            
     e( 69 - 70) =     -7.42355  eV     2   --> G_3            
     e( 69 - 70) =     -7.42355  eV     2   --> G_4            
     e( 71 - 72) =     -7.42333  eV     2   --> G_3            
     e( 71 - 72) =     -7.42333  eV     2   --> G_4            
     e( 73 - 74) =     -7.41392  eV     2   --> G_3            
     e( 73 - 74) =     -7.41392  eV     2   --> G_4            
     e( 75 - 76) =     -7.41359  eV     2   --> G_3            
     e( 75 - 76) =     -7.41359  eV     2   --> G_4            
     e( 77 - 78) =     -7.41335  eV     2   --> G_3            
     e( 77 - 78) =     -7.41335  eV     2   --> G_4            
     e( 79 - 80) =     -7.40444  eV     2   --> G_3            
     e( 79 - 80) =     -7.40444  eV     2   --> G_4            
     e( 81 - 82) =     -7.40409  eV     2   --> G_3            
     e( 81 - 82) =     -7.40409  eV     2   --> G_4            
     e( 83 - 84) =     -7.40385  eV     2   --> G_3            
     e( 83 - 84) =     -7.40385  eV     2   --> G_4            
     e( 85 - 86) =     -6.99823  eV     2   --> G_3            
     e( 85 - 86) =     -6.99823  eV     2   --> G_4            
     e( 87 - 88) =     -6.99788  eV     2   --> G_3            
     e( 87 - 88) =     -6.99788  eV     2   --> G_4            
     e( 89 - 90) =     -6.99763  eV     2   --> G_3            
     e( 89 - 90) =     -6.99763  eV     2   --> G_4            
     e( 91 - 91) =     -6.99248  eV     1   --> G_3            
     e( 92 - 93) =     -6.99220  eV     2   --> G_3            
     e( 92 - 93) =     -6.99220  eV     2   --> G_4            
     e( 94 - 95) =     -6.99188  eV     2   --> G_3            
     e( 94 - 95) =     -6.99188  eV     2   --> G_4            
     e( 96 - 96) =     -6.99161  eV     1   --> G_4            
     e( 97 - 97) =     -6.97649  eV     1   --> G_4            
     e( 98 - 98) =     -6.97629  eV     1   --> G_3            
     e( 99 - 99) =     -6.97611  eV     1   --> G_4            
     e(100 -101) =     -6.97593  eV     2   --> G_3            
     e(100 -101) =     -6.97593  eV     2   --> G_4            
     e(102 -102) =     -6.97570  eV     1   --> G_3            
     e(103 -104) =     -6.94478  eV     2   --> G_3            
     e(103 -104) =     -6.94478  eV     2   --> G_4            
     e(105 -106) =     -6.94443  eV     2   --> G_3            
     e(105 -106) =     -6.94443  eV     2   --> G_4            
     e(107 -108) =     -6.94421  eV     2   --> G_3            
     e(107 -108) =     -6.94421  eV     2   --> G_4            
     e(109 -110) =     -6.88188  eV     2   --> G_3            
     e(109 -110) =     -6.88188  eV     2   --> G_4            
     e(111 -112) =     -6.88154  eV     2   --> G_3            
     e(111 -112) =     -6.88154  eV     2   --> G_4            
     e(113 -114) =     -6.88132  eV     2   --> G_3            
     e(113 -114) =     -6.88132  eV     2   --> G_4            
     e(115 -116) =     -6.86365  eV     2   --> G_3            
     e(115 -116) =     -6.86365  eV     2   --> G_4            
     e(117 -118) =     -6.86331  eV     2   --> G_3            
     e(117 -118) =     -6.86331  eV     2   --> G_4            
     e(119 -120) =     -6.86308  eV     2   --> G_3            
     e(119 -120) =     -6.86308  eV     2   --> G_4            

 **************************************************************************

 **************************************************************************

                    xk=(   0.00000,   0.06415,   0.07771  )

     Band symmetry, C_s (m)     double point group:

     e(  1 -  2) =    -29.78168  eV     2   --> G_3            
     e(  1 -  2) =    -29.78168  eV     2   --> G_4            
     e(  3 -  4) =    -29.78112  eV     2   --> G_3            
     e(  3 -  4) =    -29.78112  eV     2   --> G_4            
     e(  5 -  6) =    -29.78098  eV     2   --> G_3            
     e(  5 -  6) =    -29.78098  eV     2   --> G_4            
     e(  7 -  8) =    -29.77938  eV     2   --> G_3            
     e(  7 -  8) =    -29.77938  eV     2   --> G_4            
     e(  9 - 10) =    -29.77887  eV     2   --> G_3            
     e(  9 - 10) =    -29.77887  eV     2   --> G_4            
     e( 11 - 12) =    -29.77854  eV     2   --> G_3            
     e( 11 - 12) =    -29.77854  eV     2   --> G_4            
     e( 13 - 14) =    -29.73112  eV     2   --> G_3            
     e( 13 - 14) =    -29.73112  eV     2   --> G_4            
     e( 15 - 16) =    -29.73065  eV     2   --> G_3            
     e( 15 - 16) =    -29.73065  eV     2   --> G_4            
     e( 17 - 18) =    -29.73048  eV     2   --> G_3            
     e( 17 - 18) =    -29.73048  eV     2   --> G_4            
     e( 19 - 20) =    -29.72995  eV     2   --> G_3            
     e( 19 - 20) =    -29.72995  eV     2   --> G_4            
     e( 21 - 22) =    -29.72952  eV     2   --> G_3            
     e( 21 - 22) =    -29.72952  eV     2   --> G_4            
     e( 23 - 24) =    -29.72917  eV     2   --> G_3            
     e( 23 - 24) =    -29.72917  eV     2   --> G_4            
     e( 25 - 26) =    -28.33063  eV     2   --> G_3            
     e( 25 - 26) =    -28.33063  eV     2   --> G_4            
     e( 27 - 28) =    -28.33006  eV     2   --> G_3            
     e( 27 - 28) =    -28.33006  eV     2   --> G_4            
     e( 29 - 30) =    -28.32992  eV     2   --> G_3            
     e( 29 - 30) =    -28.32992  eV     2   --> G_4            
     e( 31 - 32) =    -28.32807  eV     2   --> G_3            
     e( 31 - 32) =    -28.32807  eV     2   --> G_4            
     e( 33 - 34) =    -28.32755  eV     2   --> G_3            
     e( 33 - 34) =    -28.32755  eV     2   --> G_4            
     e( 35 - 36) =    -28.32723  eV     2   --> G_3            
     e( 35 - 36) =    -28.32723  eV     2   --> G_4            
     e( 37 - 38) =    -28.28655  eV     2   --> G_3            
     e( 37 - 38) =    -28.28655  eV     2   --> G_4            
     e( 39 - 40) =    -28.28605  eV     2   --> G_3            
     e( 39 - 40) =    -28.28605  eV     2   --> G_4            
     e( 41 - 42) =    -28.28589  eV     2   --> G_3            
     e( 41 - 42) =    -28.28589  eV     2   --> G_4            
     e( 43 - 44) =    -28.28499  eV     2   --> G_3            
     e( 43 - 44) =    -28.28499  eV     2   --> G_4            
     e( 45 - 46) =    -28.28453  eV     2   --> G_3            
     e( 45 - 46) =    -28.28453  eV     2   --> G_4            
     e( 47 - 48) =    -28.28419  eV     2   --> G_3            
     e( 47 - 48) =    -28.28419  eV     2   --> G_4            
     e( 49 - 50) =    -28.26475  eV     2   --> G_3            
     e( 49 - 50) =    -28.26475  eV     2   --> G_4            
     e( 51 - 52) =    -28.26430  eV     2   --> G_3            
     e( 51 - 52) =    -28.26430  eV     2   --> G_4            
     e( 53 - 54) =    -28.26412  eV     2   --> G_3            
     e( 53 - 54) =    -28.26412  eV     2   --> G_4            
     e( 55 - 56) =    -28.26362  eV     2   --> G_3            
     e( 55 - 56) =    -28.26362  eV     2   --> G_4            
     e( 57 - 58) =    -28.26320  eV     2   --> G_3            
     e( 57 - 58) =    -28.26320  eV     2   --> G_4            
     e( 59 - 60) =    -28.26285  eV     2   --> G_3            
     e( 59 - 60) =    -28.26285  eV     2   --> G_4            
     e( 61 - 61) =     -7.45788  eV     1   --> G_4            
     e( 62 - 62) =     -7.45768  eV     1   --> G_3            
     e( 63 - 63) =     -7.45753  eV     1   --> G_4            
     e( 64 - 65) =     -7.45734  eV     2   --> G_3            
     e( 64 - 65) =     -7.45734  eV     2   --> G_4            
     e( 66 - 66) =     -7.45708  eV     1   --> G_3            
     e( 67 - 68) =     -7.42409  eV     2   --> G_3            
     e( 67 - 68) =     -7.42409  eV     2   --> G_4            
     e( 69 - 70) =     -7.42371  eV     2   --> G_3            
     e( 69 - 70) =     -7.42371  eV     2   --> G_4            
     e( 71 - 72) =     -7.42349  eV     2   --> G_3            
     e( 71 - 72) =     -7.42349  eV     2   --> G_4            
     e( 73 - 74) =     -7.41413  eV     2   --> G_3            
     e( 73 - 74) =     -7.41413  eV     2   --> G_4            
     e( 75 - 76) =     -7.41380  eV     2   --> G_3            
     e( 75 - 76) =     -7.41380  eV     2   --> G_4            
     e( 77 - 78) =     -7.41356  eV     2   --> G_3            
     e( 77 - 78) =     -7.41356  eV     2   --> G_4            
     e( 79 - 79) =     -7.40459  eV     1   --> G_3            
     e( 80 - 80) =     -7.40447  eV     1   --> G_4            
     e( 81 - 81) =     -7.40424  eV     1   --> G_3            
     e( 82 - 82) =     -7.40413  eV     1   --> G_4            
     e( 83 - 83) =     -7.40400  eV     1   --> G_3            
     e( 84 - 84) =     -7.40388  eV     1   --> G_4            
     e( 85 - 86) =     -6.99884  eV     2   --> G_3            
     e( 85 - 86) =     -6.99884  eV     2   --> G_4            
     e( 87 - 88) =     -6.99848  eV     2   --> G_3            
     e( 87 - 88) =     -6.99848  eV     2   --> G_4            
     e( 89 - 90) =     -6.99823  eV     2   --> G_3            
     e( 89 - 90) =     -6.99823  eV     2   --> G_4            
     e( 91 - 91) =     -6.99290  eV     1   --> G_3            
     e( 92 - 93) =     -6.99253  eV     2   --> G_3            
     e( 92 - 93) =     -6.99253  eV     2   --> G_4            
     e( 94 - 94) =     -6.99230  eV     1   --> G_3            
     e( 95 - 95) =     -6.99218  eV     1   --> G_4            
     e( 96 - 96) =     -6.99194  eV     1   --> G_4            
     e( 97 - 97) =     -6.97652  eV     1   --> G_4            
     e( 98 - 99) =     -6.97624  eV     2   --> G_3            
     e( 98 - 99) =     -6.97624  eV     2   --> G_4            
     e(100 -101) =     -6.97592  eV     2   --> G_3            
     e(100 -101) =     -6.97592  eV     2   --> G_4            
     e(102 -102) =     -6.97565  eV     1   --> G_3            
     e(103 -104) =     -6.94472  eV     2   --> G_3            
     e(103 -104) =     -6.94472  eV     2   --> G_4            
     e(105 -106) =     -6.94437  eV     2   --> G_3            
     e(105 -106) =     -6.94437  eV     2   --> G_4            
     e(107 -108) =     -6.94415  eV     2   --> G_3            
     e(107 -108) =     -6.94415  eV     2   --> G_4            
     e(109 -110) =     -6.88256  eV     2   --> G_3            
     e(109 -110) =     -6.88256  eV     2   --> G_4            
     e(111 -112) =     -6.88222  eV     2   --> G_3            
     e(111 -112) =     -6.88222  eV     2   --> G_4            
     e(113 -114) =     -6.88199  eV     2   --> G_3            
     e(113 -114) =     -6.88199  eV     2   --> G_4            
     e(115 -116) =     -6.86306  eV     2   --> G_3            
     e(115 -116) =     -6.86306  eV     2   --> G_4            
     e(117 -118) =     -6.86271  eV     2   --> G_3            
     e(117 -118) =     -6.86271  eV     2   --> G_4            
     e(119 -120) =     -6.86249  eV     2   --> G_3            
     e(119 -120) =     -6.86249  eV     2   --> G_4            

 **************************************************************************

 **************************************************************************

                    xk=(   0.00000,   0.08553,   0.07771  )

     Band symmetry, C_s (m)     double point group:

     e(  1 -  2) =    -29.78166  eV     2   --> G_3            
     e(  1 -  2) =    -29.78166  eV     2   --> G_4            
     e(  3 -  4) =    -29.78110  eV     2   --> G_3            
     e(  3 -  4) =    -29.78110  eV     2   --> G_4            
     e(  5 -  6) =    -29.78096  eV     2   --> G_3            
     e(  5 -  6) =    -29.78096  eV     2   --> G_4            
     e(  7 -  8) =    -29.77935  eV     2   --> G_3            
     e(  7 -  8) =    -29.77935  eV     2   --> G_4            
     e(  9 - 10) =    -29.77884  eV     2   --> G_3            
     e(  9 - 10) =    -29.77884  eV     2   --> G_4            
     e( 11 - 12) =    -29.77852  eV     2   --> G_3            
     e( 11 - 12) =    -29.77852  eV     2   --> G_4            
     e( 13 - 14) =    -29.73112  eV     2   --> G_3            
     e( 13 - 14) =    -29.73112  eV     2   --> G_4            
     e( 15 - 16) =    -29.73065  eV     2   --> G_3            
     e( 15 - 16) =    -29.73065  eV     2   --> G_4            
     e( 17 - 18) =    -29.73048  eV     2   --> G_3            
     e( 17 - 18) =    -29.73048  eV     2   --> G_4            
     e( 19 - 20) =    -29.72995  eV     2   --> G_3            
     e( 19 - 20) =    -29.72995  eV     2   --> G_4            
     e( 21 - 22) =    -29.72952  eV     2   --> G_3            
     e( 21 - 22) =    -29.72952  eV     2   --> G_4            
     e( 23 - 24) =    -29.72917  eV     2   --> G_3            
     e( 23 - 24) =    -29.72917  eV     2   --> G_4            
     e( 25 - 26) =    -28.33058  eV     2   --> G_3            
     e( 25 - 26) =    -28.33058  eV     2   --> G_4            
     e( 27 - 28) =    -28.33001  eV     2   --> G_3            
     e( 27 - 28) =    -28.33001  eV     2   --> G_4            
     e( 29 - 30) =    -28.32987  eV     2   --> G_3            
     e( 29 - 30) =    -28.32987  eV     2   --> G_4            
     e( 31 - 32) =    -28.32803  eV     2   --> G_3            
     e( 31 - 32) =    -28.32803  eV     2   --> G_4            
     e( 33 - 34) =    -28.32750  eV     2   --> G_3            
     e( 33 - 34) =    -28.32750  eV     2   --> G_4            
     e( 35 - 36) =    -28.32719  eV     2   --> G_3            
     e( 35 - 36) =    -28.32719  eV     2   --> G_4            
     e( 37 - 38) =    -28.28655  eV     2   --> G_3            
     e( 37 - 38) =    -28.28655  eV     2   --> G_4            
     e( 39 - 40) =    -28.28605  eV     2   --> G_3            
     e( 39 - 40) =    -28.28605  eV     2   --> G_4            
     e( 41 - 42) =    -28.28589  eV     2   --> G_3            
     e( 41 - 42) =    -28.28589  eV     2   --> G_4            
     e( 43 - 44) =    -28.28500  eV     2   --> G_3            
     e( 43 - 44) =    -28.28500  eV     2   --> G_4            
     e( 45 - 46) =    -28.28453  eV     2   --> G_3            
     e( 45 - 46) =    -28.28453  eV     2   --> G_4            
     e( 47 - 48) =    -28.28419  eV     2   --> G_3            
     e( 47 - 48) =    -28.28419  eV     2   --> G_4            
     e( 49 - 50) =    -28.26474  eV     2   --> G_3            
     e( 49 - 50) =    -28.26474  eV     2   --> G_4            
     e( 51 - 52) =    -28.26429  eV     2   --> G_3            
     e( 51 - 52) =    -28.26429  eV     2   --> G_4            
     e( 53 - 54) =    -28.26411  eV     2   --> G_3            
     e( 53 - 54) =    -28.26411  eV     2   --> G_4            
     e( 55 - 56) =    -28.26361  eV     2   --> G_3            
     e( 55 - 56) =    -28.26361  eV     2   --> G_4            
     e( 57 - 58) =    -28.26319  eV     2   --> G_3            
     e( 57 - 58) =    -28.26319  eV     2   --> G_4            
     e( 59 - 60) =    -28.26284  eV     2   --> G_3            
     e( 59 - 60) =    -28.26284  eV     2   --> G_4            
     e( 61 - 61) =     -7.45804  eV     1   --> G_4            
     e( 62 - 63) =     -7.45778  eV     2   --> G_3            
     e( 62 - 63) =     -7.45778  eV     2   --> G_4            
     e( 64 - 65) =     -7.45743  eV     2   --> G_3            
     e( 64 - 65) =     -7.45743  eV     2   --> G_4            
     e( 66 - 66) =     -7.45717  eV     1   --> G_3            
     e( 67 - 68) =     -7.42431  eV     2   --> G_3            
     e( 67 - 68) =     -7.42431  eV     2   --> G_4            
     e( 69 - 70) =     -7.42393  eV     2   --> G_3            
     e( 69 - 70) =     -7.42393  eV     2   --> G_4            
     e( 71 - 72) =     -7.42371  eV     2   --> G_3            
     e( 71 - 72) =     -7.42371  eV     2   --> G_4            
     e( 73 - 74) =     -7.41444  eV     2   --> G_3            
     e( 73 - 74) =     -7.41444  eV     2   --> G_4            
     e( 75 - 76) =     -7.41410  eV     2   --> G_3            
     e( 75 - 76) =     -7.41410  eV     2   --> G_4            
     e( 77 - 78) =     -7.41387  eV     2   --> G_3            
     e( 77 - 78) =     -7.41387  eV     2   --> G_4            
     e( 79 - 79) =     -7.40477  eV     1   --> G_3            
     e( 80 - 80) =     -7.40464  eV     1   --> G_4            
     e( 81 - 81) =     -7.40442  eV     1   --> G_3            
     e( 82 - 82) =     -7.40429  eV     1   --> G_4            
     e( 83 - 83) =     -7.40418  eV     1   --> G_3            
     e( 84 - 84) =     -7.40405  eV     1   --> G_4            
     e( 85 - 85) =     -6.99971  eV     1   --> G_3            
     e( 86 - 86) =     -6.99958  eV     1   --> G_4            
     e( 87 - 87) =     -6.99935  eV     1   --> G_3            
     e( 88 - 88) =     -6.99923  eV     1   --> G_4            
     e( 89 - 89) =     -6.99910  eV     1   --> G_3            
     e( 90 - 90) =     -6.99898  eV     1   --> G_4            
     e( 91 - 91) =     -6.99338  eV     1   --> G_3            
     e( 92 - 93) =     -6.99301  eV     2   --> G_3            
     e( 92 - 93) =     -6.99301  eV     2   --> G_4            
     e( 94 - 94) =     -6.99278  eV     1   --> G_3            
     e( 95 - 95) =     -6.99261  eV     1   --> G_4            
     e( 96 - 96) =     -6.99238  eV     1   --> G_4            
     e( 97 - 97) =     -6.97655  eV     1   --> G_4            
     e( 98 - 99) =     -6.97620  eV     2   --> G_3            
     e( 98 - 99) =     -6.97620  eV     2   --> G_4            
     e(100 -100) =     -6.97595  eV     1   --> G_4            
     e(101 -101) =     -6.97584  eV     1   --> G_3            
     e(102 -102) =     -6.97561  eV     1   --> G_3            
     e(103 -104) =     -6.94463  eV     2   --> G_3            
     e(103 -104) =     -6.94463  eV     2   --> G_4            
     e(105 -106) =     -6.94429  eV     2   --> G_3            
     e(105 -106) =     -6.94429  eV     2   --> G_4            
     e(107 -108) =     -6.94406  eV     2   --> G_3            
     e(107 -108) =     -6.94406  eV     2   --> G_4            
     e(109 -110) =     -6.88342  eV     2   --> G_3            
     e(109 -110) =     -6.88342  eV     2   --> G_4            
     e(111 -112) =     -6.88308  eV     2   --> G_3            
     e(111 -112) =     -6.88308  eV     2   --> G_4            
     e(113 -114) =     -6.88285  eV     2   --> G_3            
     e(113 -114) =     -6.88285  eV     2   --> G_4            
     e(115 -116) =     -6.86230  eV     2   --> G_3            
     e(115 -116) =     -6.86230  eV     2   --> G_4            
     e(117 -118) =     -6.86196  eV     2   --> G_3            
     e(117 -118) =     -6.86196  eV     2   --> G_4            
     e(119 -120) =     -6.86173  eV     2   --> G_3            
     e(119 -120) =     -6.86173  eV     2   --> G_4            

 **************************************************************************

 **************************************************************************

                    xk=(   0.00000,   0.10692,   0.07771  )

     Band symmetry, C_s (m)     double point group:

     e(  1 -  2) =    -29.78162  eV     2   --> G_3            
     e(  1 -  2) =    -29.78162  eV     2   --> G_4            
     e(  3 -  4) =    -29.78106  eV     2   --> G_3            
     e(  3 -  4) =    -29.78106  eV     2   --> G_4            
     e(  5 -  6) =    -29.78092  eV     2   --> G_3            
     e(  5 -  6) =    -29.78092  eV     2   --> G_4            
     e(  7 -  8) =    -29.77932  eV     2   --> G_3            
     e(  7 -  8) =    -29.77932  eV     2   --> G_4            
     e(  9 - 10) =    -29.77881  eV     2   --> G_3            
     e(  9 - 10) =    -29.77881  eV     2   --> G_4            
     e( 11 - 12) =    -29.77848  eV     2   --> G_3            
     e( 11 - 12) =    -29.77848  eV     2   --> G_4            
     e( 13 - 14) =    -29.73112  eV     2   --> G_3            
     e( 13 - 14) =    -29.73112  eV     2   --> G_4            
     e( 15 - 16) =    -29.73065  eV     2   --> G_3            
     e( 15 - 16) =    -29.73065  eV     2   --> G_4            
     e( 17 - 18) =    -29.73048  eV     2   --> G_3            
     e( 17 - 18) =    -29.73048  eV     2   --> G_4            
     e( 19 - 20) =    -29.72995  eV     2   --> G_3            
     e( 19 - 20) =    -29.72995  eV     2   --> G_4            
     e( 21 - 22) =    -29.72951  eV     2   --> G_3            
     e( 21 - 22) =    -29.72951  eV     2   --> G_4            
     e( 23 - 24) =    -29.72916  eV     2   --> G_3            
     e( 23 - 24) =    -29.72916  eV     2   --> G_4            
     e( 25 - 26) =    -28.33053  eV     2   --> G_3            
     e( 25 - 26) =    -28.33053  eV     2   --> G_4            
     e( 27 - 28) =    -28.32996  eV     2   --> G_3            
     e( 27 - 28) =    -28.32996  eV     2   --> G_4            
     e( 29 - 30) =    -28.32982  eV     2   --> G_3            
     e( 29 - 30) =    -28.32982  eV     2   --> G_4            
     e( 31 - 32) =    -28.32797  eV     2   --> G_3            
     e( 31 - 32) =    -28.32797  eV     2   --> G_4            
     e( 33 - 34) =    -28.32745  eV     2   --> G_3            
     e( 33 - 34) =    -28.32745  eV     2   --> G_4            
     e( 35 - 36) =    -28.32713  eV     2   --> G_3            
     e( 35 - 36) =    -28.32713  eV     2   --> G_4            
     e( 37 - 38) =    -28.28656  eV     2   --> G_3            
     e( 37 - 38) =    -28.28656  eV     2   --> G_4            
     e( 39 - 40) =    -28.28606  eV     2   --> G_3            
     e( 39 - 40) =    -28.28606  eV     2   --> G_4            
     e( 41 - 42) =    -28.28590  eV     2   --> G_3            
     e( 41 - 42) =    -28.28590  eV     2   --> G_4            
     e( 43 - 44) =    -28.28501  eV     2   --> G_3            
     e( 43 - 44) =    -28.28501  eV     2   --> G_4            
     e( 45 - 46) =    -28.28454  eV     2   --> G_3            
     e( 45 - 46) =    -28.28454  eV     2   --> G_4            
     e( 47 - 48) =    -28.28420  eV     2   --> G_3            
     e( 47 - 48) =    -28.28420  eV     2   --> G_4            
     e( 49 - 50) =    -28.26472  eV     2   --> G_3            
     e( 49 - 50) =    -28.26472  eV     2   --> G_4            
     e( 51 - 52) =    -28.26426  eV     2   --> G_3            
     e( 51 - 52) =    -28.26426  eV     2   --> G_4            
     e( 53 - 54) =    -28.26409  eV     2   --> G_3            
     e( 53 - 54) =    -28.26409  eV     2   --> G_4            
     e( 55 - 56) =    -28.26359  eV     2   --> G_3            
     e( 55 - 56) =    -28.26359  eV     2   --> G_4            
     e( 57 - 58) =    -28.26317  eV     2   --> G_3            
     e( 57 - 58) =    -28.26317  eV     2   --> G_4            
     e( 59 - 60) =    -28.26282  eV     2   --> G_3            
     e( 59 - 60) =    -28.26282  eV     2   --> G_4            
     e( 61 - 61) =     -7.45823  eV     1   --> G_4            
     e( 62 - 63) =     -7.45790  eV     2   --> G_3            
     e( 62 - 63) =     -7.45790  eV     2   --> G_4            
     e( 64 - 65) =     -7.45762  eV     2   --> G_3            
     e( 64 - 65) =     -7.45762  eV     2   --> G_4            
     e( 66 - 66) =     -7.45730  eV     1   --> G_3            
     e( 67 - 68) =     -7.42459  eV     2   --> G_3            
     e( 67 - 68) =     -7.42459  eV     2   --> G_4            
     e( 69 - 70) =     -7.42421  eV     2   --> G_3            
     e( 69 - 70) =     -7.42421  eV     2   --> G_4            
     e( 71 - 72) =     -7.42399  eV     2   --> G_3            
     e( 71 - 72) =     -7.42399  eV     2   --> G_4            
     e( 73 - 73) =     -7.41485  eV     1   --> G_3            
     e( 74 - 74) =     -7.41471  eV     1   --> G_4            
     e( 75 - 75) =     -7.41451  eV     1   --> G_3            
     e( 76 - 76) =     -7.41438  eV     1   --> G_4            
     e( 77 - 77) =     -7.41427  eV     1   --> G_3            
     e( 78 - 78) =     -7.41414  eV     1   --> G_4            
     e( 79 - 79) =     -7.40498  eV     1   --> G_3            
     e( 80 - 80) =     -7.40485  eV     1   --> G_4            
     e( 81 - 81) =     -7.40463  eV     1   --> G_3            
     e( 82 - 82) =     -7.40450  eV     1   --> G_4            
     e( 83 - 83) =     -7.40438  eV     1   --> G_3            
     e( 84 - 84) =     -7.40426  eV     1   --> G_4            
     e( 85 - 85) =     -7.00085  eV     1   --> G_3            
     e( 86 - 86) =     -7.00063  eV     1   --> G_4            
     e( 87 - 87) =     -7.00048  eV     1   --> G_3            
     e( 88 - 89) =     -7.00028  eV     2   --> G_3            
     e( 88 - 89) =     -7.00028  eV     2   --> G_4            
     e( 90 - 90) =     -7.00003  eV     1   --> G_4            
     e( 91 - 91) =     -6.99389  eV     1   --> G_3            
     e( 92 - 93) =     -6.99352  eV     2   --> G_3            
     e( 92 - 93) =     -6.99352  eV     2   --> G_4            
     e( 94 - 94) =     -6.99329  eV     1   --> G_3            
     e( 95 - 95) =     -6.99313  eV     1   --> G_4            
     e( 96 - 96) =     -6.99289  eV     1   --> G_4            
     e( 97 - 97) =     -6.97657  eV     1   --> G_4            
     e( 98 - 99) =     -6.97619  eV     2   --> G_3            
     e( 98 - 99) =     -6.97619  eV     2   --> G_4            
     e(100 -100) =     -6.97597  eV     1   --> G_4            
     e(101 -101) =     -6.97581  eV     1   --> G_3            
     e(102 -102) =     -6.97558  eV     1   --> G_3            
     e(103 -104) =     -6.94452  eV     2   --> G_3            
     e(103 -104) =     -6.94452  eV     2   --> G_4            
     e(105 -106) =     -6.94418  eV     2   --> G_3            
     e(105 -106) =     -6.94418  eV     2   --> G_4            
     e(107 -108) =     -6.94395  eV     2   --> G_3            
     e(107 -108) =     -6.94395  eV     2   --> G_4            
     e(109 -110) =     -6.88441  eV     2   --> G_3            
     e(109 -110) =     -6.88441  eV     2   --> G_4            
     e(111 -112) =     -6.88407  eV     2   --> G_3            
     e(111 -112) =     -6.88407  eV     2   --> G_4            
     e(113 -114) =     -6.88384  eV     2   --> G_3            
     e(113 -114) =     -6.88384  eV     2   --> G_4            
     e(115 -116) =     -6.86142  eV     2   --> G_3            
     e(115 -116) =     -6.86142  eV     2   --> G_4            
     e(117 -118) =     -6.86108  eV     2   --> G_3            
     e(117 -118) =     -6.86108  eV     2   --> G_4            
     e(119 -120) =     -6.86085  eV     2   --> G_3            
     e(119 -120) =     -6.86085  eV     2   --> G_4            

 **************************************************************************

 **************************************************************************

                    xk=(   0.00000,   0.12830,   0.07771  )

     Band symmetry, C_s (m)     double point group:

     e(  1 -  2) =    -29.78158  eV     2   --> G_3            
     e(  1 -  2) =    -29.78158  eV     2   --> G_4            
     e(  3 -  4) =    -29.78102  eV     2   --> G_3            
     e(  3 -  4) =    -29.78102  eV     2   --> G_4            
     e(  5 -  6) =    -29.78088  eV     2   --> G_3            
     e(  5 -  6) =    -29.78088  eV     2   --> G_4            
     e(  7 -  8) =    -29.77928  eV     2   --> G_3            
     e(  7 -  8) =    -29.77928  eV     2   --> G_4            
     e(  9 - 10) =    -29.77876  eV     2   --> G_3            
     e(  9 - 10) =    -29.77876  eV     2   --> G_4            
     e( 11 - 12) =    -29.77844  eV     2   --> G_3            
     e( 11 - 12) =    -29.77844  eV     2   --> G_4            
     e( 13 - 14) =    -29.73111  eV     2   --> G_3            
     e( 13 - 14) =    -29.73111  eV     2   --> G_4            
     e( 15 - 16) =    -29.73064  eV     2   --> G_3            
     e( 15 - 16) =    -29.73064  eV     2   --> G_4            
     e( 17 - 18) =    -29.73047  eV     2   --> G_3            
     e( 17 - 18) =    -29.73047  eV     2   --> G_4            
     e( 19 - 20) =    -29.72995  eV     2   --> G_3            
     e( 19 - 20) =    -29.72995  eV     2   --> G_4            
     e( 21 - 22) =    -29.72951  eV     2   --> G_3            
     e( 21 - 22) =    -29.72951  eV     2   --> G_4            
     e( 23 - 24) =    -29.72916  eV     2   --> G_3            
     e( 23 - 24) =    -29.72916  eV     2   --> G_4            
     e( 25 - 26) =    -28.33046  eV     2   --> G_3            
     e( 25 - 26) =    -28.33046  eV     2   --> G_4            
     e( 27 - 28) =    -28.32989  eV     2   --> G_3            
     e( 27 - 28) =    -28.32989  eV     2   --> G_4            
     e( 29 - 30) =    -28.32975  eV     2   --> G_3            
     e( 29 - 30) =    -28.32975  eV     2   --> G_4            
     e( 31 - 32) =    -28.32790  eV     2   --> G_3            
     e( 31 - 32) =    -28.32790  eV     2   --> G_4            
     e( 33 - 34) =    -28.32738  eV     2   --> G_3            
     e( 33 - 34) =    -28.32738  eV     2   --> G_4            
     e( 35 - 36) =    -28.32706  eV     2   --> G_3            
     e( 35 - 36) =    -28.32706  eV     2   --> G_4            
     e( 37 - 38) =    -28.28657  eV     2   --> G_3            
     e( 37 - 38) =    -28.28657  eV     2   --> G_4            
     e( 39 - 40) =    -28.28607  eV     2   --> G_3            
     e( 39 - 40) =    -28.28607  eV     2   --> G_4            
     e( 41 - 42) =    -28.28591  eV     2   --> G_3            
     e( 41 - 42) =    -28.28591  eV     2   --> G_4            
     e( 43 - 44) =    -28.28502  eV     2   --> G_3            
     e( 43 - 44) =    -28.28502  eV     2   --> G_4            
     e( 45 - 46) =    -28.28455  eV     2   --> G_3            
     e( 45 - 46) =    -28.28455  eV     2   --> G_4            
     e( 47 - 48) =    -28.28421  eV     2   --> G_3            
     e( 47 - 48) =    -28.28421  eV     2   --> G_4            
     e( 49 - 50) =    -28.26469  eV     2   --> G_3            
     e( 49 - 50) =    -28.26469  eV     2   --> G_4            
     e( 51 - 52) =    -28.26424  eV     2   --> G_3            
     e( 51 - 52) =    -28.26424  eV     2   --> G_4            
     e( 53 - 54) =    -28.26406  eV     2   --> G_3            
     e( 53 - 54) =    -28.26406  eV     2   --> G_4            
     e( 55 - 56) =    -28.26356  eV     2   --> G_3            
     e( 55 - 56) =    -28.26356  eV     2   --> G_4            
     e( 57 - 58) =    -28.26315  eV     2   --> G_3            
     e( 57 - 58) =    -28.26315  eV     2   --> G_4            
     e( 59 - 60) =    -28.26279  eV     2   --> G_3            
     e( 59 - 60) =    -28.26279  eV     2   --> G_4            
     e( 61 - 61) =     -7.45846  eV     1   --> G_4            
     e( 62 - 63) =     -7.45810  eV     2   --> G_3            
     e( 62 - 63) =     -7.45810  eV     2   --> G_4            
     e( 64 - 64) =     -7.45784  eV     1   --> G_4            
     e( 65 - 65) =     -7.45772  eV     1   --> G_3            
     e( 66 - 66) =     -7.45746  eV     1   --> G_3            
     e( 67 - 68) =     -7.42493  eV     2   --> G_3            
     e( 67 - 68) =     -7.42493  eV     2   --> G_4            
     e( 69 - 70) =     -7.42454  eV     2   --> G_3            
     e( 69 - 70) =     -7.42454  eV     2   --> G_4            
     e( 71 - 72) =     -7.42432  eV     2   --> G_3            
     e( 71 - 72) =     -7.42432  eV     2   --> G_4            
     e( 73 - 73) =     -7.41536  eV     1   --> G_3            
     e( 74 - 74) =     -7.41514  eV     1   --> G_4            
     e( 75 - 75) =     -7.41502  eV     1   --> G_3            
     e( 76 - 77) =     -7.41481  eV     2   --> G_3            
     e( 76 - 77) =     -7.41481  eV     2   --> G_4            
     e( 78 - 78) =     -7.41457  eV     1   --> G_4            
     e( 79 - 79) =     -7.40519  eV     1   --> G_3            
     e( 80 - 80) =     -7.40509  eV     1   --> G_4            
     e( 81 - 82) =     -7.40484  eV     2   --> G_3            
     e( 81 - 82) =     -7.40484  eV     2   --> G_4            
     e( 83 - 83) =     -7.40460  eV     1   --> G_3            
     e( 84 - 84) =     -7.40450  eV     1   --> G_4            
     e( 85 - 85) =     -7.00224  eV     1   --> G_3            
     e( 86 - 87) =     -7.00191  eV     2   --> G_3            
     e( 86 - 87) =     -7.00191  eV     2   --> G_4            
     e( 88 - 89) =     -7.00162  eV     2   --> G_3            
     e( 88 - 89) =     -7.00162  eV     2   --> G_4            
     e( 90 - 90) =     -7.00131  eV     1   --> G_4            
     e( 91 - 91) =     -6.99443  eV     1   --> G_3            
     e( 92 - 93) =     -6.99406  eV     2   --> G_3            
     e( 92 - 93) =     -6.99406  eV     2   --> G_4            
     e( 94 - 94) =     -6.99382  eV     1   --> G_3            
     e( 95 - 95) =     -6.99369  eV     1   --> G_4            
     e( 96 - 96) =     -6.99345  eV     1   --> G_4            
     e( 97 - 97) =     -6.97659  eV     1   --> G_4            
     e( 98 - 99) =     -6.97621  eV     2   --> G_3            
     e( 98 - 99) =     -6.97621  eV     2   --> G_4            
     e(100 -100) =     -6.97599  eV     1   --> G_4            
     e(101 -101) =     -6.97579  eV     1   --> G_3            
     e(102 -102) =     -6.97557  eV     1   --> G_3            
     e(103 -104) =     -6.94438  eV     2   --> G_3            
     e(103 -104) =     -6.94438  eV     2   --> G_4            
     e(105 -106) =     -6.94404  eV     2   --> G_3            
     e(105 -106) =     -6.94404  eV     2   --> G_4            
     e(107 -108) =     -6.94381  eV     2   --> G_3            
     e(107 -108) =     -6.94381  eV     2   --> G_4            
     e(109 -110) =     -6.88549  eV     2   --> G_3            
     e(109 -110) =     -6.88549  eV     2   --> G_4            
     e(111 -112) =     -6.88515  eV     2   --> G_3            
     e(111 -112) =     -6.88515  eV     2   --> G_4            
     e(113 -114) =     -6.88492  eV     2   --> G_3            
     e(113 -114) =     -6.88492  eV     2   --> G_4            
     e(115 -116) =     -6.86045  eV     2   --> G_3            
     e(115 -116) =     -6.86045  eV     2   --> G_4            
     e(117 -118) =     -6.86012  eV     2   --> G_3            
     e(117 -118) =     -6.86012  eV     2   --> G_4            
     e(119 -120) =     -6.85989  eV     2   --> G_3            
     e(119 -120) =     -6.85989  eV     2   --> G_4            

 **************************************************************************

 **************************************************************************

                    xk=(   0.00000,   0.14968,   0.07771  )

     Band symmetry, C_s (m)     double point group:

     e(  1 -  2) =    -29.78153  eV     2   --> G_3            
     e(  1 -  2) =    -29.78153  eV     2   --> G_4            
     e(  3 -  4) =    -29.78097  eV     2   --> G_3            
     e(  3 -  4) =    -29.78097  eV     2   --> G_4            
     e(  5 -  6) =    -29.78083  eV     2   --> G_3            
     e(  5 -  6) =    -29.78083  eV     2   --> G_4            
     e(  7 -  8) =    -29.77923  eV     2   --> G_3            
     e(  7 -  8) =    -29.77923  eV     2   --> G_4            
     e(  9 - 10) =    -29.77872  eV     2   --> G_3            
     e(  9 - 10) =    -29.77872  eV     2   --> G_4            
     e( 11 - 12) =    -29.77839  eV     2   --> G_3            
     e( 11 - 12) =    -29.77839  eV     2   --> G_4            
     e( 13 - 14) =    -29.73110  eV     2   --> G_3            
     e( 13 - 14) =    -29.73110  eV     2   --> G_4            
     e( 15 - 18) =    -29.73063  eV     4   -->   2 G_3            
     e( 15 - 18) =    -29.73063  eV     4   -->   2 G_4            
     e( 19 - 20) =    -29.72994  eV     2   --> G_3            
     e( 19 - 20) =    -29.72994  eV     2   --> G_4            
     e( 21 - 22) =    -29.72951  eV     2   --> G_3            
     e( 21 - 22) =    -29.72951  eV     2   --> G_4            
     e( 23 - 24) =    -29.72916  eV     2   --> G_3            
     e( 23 - 24) =    -29.72916  eV     2   --> G_4            
     e( 25 - 26) =    -28.33038  eV     2   --> G_3            
     e( 25 - 26) =    -28.33038  eV     2   --> G_4            
     e( 27 - 28) =    -28.32981  eV     2   --> G_3            
     e( 27 - 28) =    -28.32981  eV     2   --> G_4            
     e( 29 - 30) =    -28.32967  eV     2   --> G_3            
     e( 29 - 30) =    -28.32967  eV     2   --> G_4            
     e( 31 - 32) =    -28.32783  eV     2   --> G_3            
     e( 31 - 32) =    -28.32783  eV     2   --> G_4            
     e( 33 - 34) =    -28.32731  eV     2   --> G_3            
     e( 33 - 34) =    -28.32731  eV     2   --> G_4            
     e( 35 - 36) =    -28.32699  eV     2   --> G_3            
     e( 35 - 36) =    -28.32699  eV     2   --> G_4            
     e( 37 - 38) =    -28.28658  eV     2   --> G_3            
     e( 37 - 38) =    -28.28658  eV     2   --> G_4            
     e( 39 - 40) =    -28.28608  eV     2   --> G_3            
     e( 39 - 40) =    -28.28608  eV     2   --> G_4            
     e( 41 - 42) =    -28.28592  eV     2   --> G_3            
     e( 41 - 42) =    -28.28592  eV     2   --> G_4            
     e( 43 - 44) =    -28.28503  eV     2   --> G_3            
     e( 43 - 44) =    -28.28503  eV     2   --> G_4            
     e( 45 - 46) =    -28.28456  eV     2   --> G_3            
     e( 45 - 46) =    -28.28456  eV     2   --> G_4            
     e( 47 - 48) =    -28.28422  eV     2   --> G_3            
     e( 47 - 48) =    -28.28422  eV     2   --> G_4            
     e( 49 - 50) =    -28.26466  eV     2   --> G_3            
     e( 49 - 50) =    -28.26466  eV     2   --> G_4            
     e( 51 - 54) =    -28.26420  eV     4   -->   2 G_3            
     e( 51 - 54) =    -28.26420  eV     4   -->   2 G_4            
     e( 55 - 56) =    -28.26353  eV     2   --> G_3            
     e( 55 - 56) =    -28.26353  eV     2   --> G_4            
     e( 57 - 58) =    -28.26312  eV     2   --> G_3            
     e( 57 - 58) =    -28.26312  eV     2   --> G_4            
     e( 59 - 60) =    -28.26276  eV     2   --> G_3            
     e( 59 - 60) =    -28.26276  eV     2   --> G_4            
     e( 61 - 61) =     -7.45872  eV     1   --> G_4            
     e( 62 - 62) =     -7.45835  eV     1   --> G_4            
     e( 63 - 63) =     -7.45825  eV     1   --> G_3            
     e( 64 - 64) =     -7.45810  eV     1   --> G_4            
     e( 65 - 65) =     -7.45791  eV     1   --> G_3            
     e( 66 - 66) =     -7.45765  eV     1   --> G_3            
     e( 67 - 68) =     -7.42532  eV     2   --> G_3            
     e( 67 - 68) =     -7.42532  eV     2   --> G_4            
     e( 69 - 70) =     -7.42493  eV     2   --> G_3            
     e( 69 - 70) =     -7.42493  eV     2   --> G_4            
     e( 71 - 72) =     -7.42471  eV     2   --> G_3            
     e( 71 - 72) =     -7.42471  eV     2   --> G_4            
     e( 73 - 73) =     -7.41598  eV     1   --> G_3            
     e( 74 - 75) =     -7.41566  eV     2   --> G_3            
     e( 74 - 75) =     -7.41566  eV     2   --> G_4            
     e( 76 - 77) =     -7.41540  eV     2   --> G_3            
     e( 76 - 77) =     -7.41540  eV     2   --> G_4            
     e( 78 - 78) =     -7.41509  eV     1   --> G_4            
     e( 79 - 80) =     -7.40540  eV     2   --> G_3            
     e( 79 - 80) =     -7.40540  eV     2   --> G_4            
     e( 81 - 82) =     -7.40506  eV     2   --> G_3            
     e( 81 - 82) =     -7.40506  eV     2   --> G_4            
     e( 83 - 84) =     -7.40481  eV     2   --> G_3            
     e( 83 - 84) =     -7.40481  eV     2   --> G_4            
     e( 85 - 85) =     -7.00383  eV     1   --> G_3            
     e( 86 - 87) =     -7.00345  eV     2   --> G_3            
     e( 86 - 87) =     -7.00345  eV     2   --> G_4            
     e( 88 - 88) =     -7.00321  eV     1   --> G_3            
     e( 89 - 89) =     -7.00305  eV     1   --> G_4            
     e( 90 - 90) =     -7.00280  eV     1   --> G_4            
     e( 91 - 91) =     -6.99497  eV     1   --> G_3            
     e( 92 - 93) =     -6.99464  eV     2   --> G_3            
     e( 92 - 93) =     -6.99464  eV     2   --> G_4            
     e( 94 - 95) =     -6.99437  eV     2   --> G_3            
     e( 94 - 95) =     -6.99437  eV     2   --> G_4            
     e( 96 - 96) =     -6.99405  eV     1   --> G_4            
     e( 97 - 97) =     -6.97662  eV     1   --> G_4            
     e( 98 - 99) =     -6.97624  eV     2   --> G_3            
     e( 98 - 99) =     -6.97624  eV     2   --> G_4            
     e(100 -100) =     -6.97602  eV     1   --> G_4            
     e(101 -101) =     -6.97580  eV     1   --> G_3            
     e(102 -102) =     -6.97557  eV     1   --> G_3            
     e(103 -104) =     -6.94422  eV     2   --> G_3            
     e(103 -104) =     -6.94422  eV     2   --> G_4            
     e(105 -106) =     -6.94387  eV     2   --> G_3            
     e(105 -106) =     -6.94387  eV     2   --> G_4            
     e(107 -108) =     -6.94365  eV     2   --> G_3            
     e(107 -108) =     -6.94365  eV     2   --> G_4            
     e(109 -110) =     -6.88662  eV     2   --> G_3            
     e(109 -110) =     -6.88662  eV     2   --> G_4            
     e(111 -112) =     -6.88627  eV     2   --> G_3            
     e(111 -112) =     -6.88627  eV     2   --> G_4            
     e(113 -114) =     -6.88604  eV     2   --> G_3            
     e(113 -114) =     -6.88604  eV     2   --> G_4            
     e(115 -115) =     -6.85944  eV     1   --> G_4            
     e(116 -116) =     -6.85934  eV     1   --> G_3            
     e(117 -118) =     -6.85910  eV     2   --> G_3            
     e(117 -118) =     -6.85910  eV     2   --> G_4            
     e(119 -119) =     -6.85888  eV     1   --> G_4            
     e(120 -120) =     -6.85878  eV     1   --> G_3            

 **************************************************************************

 **************************************************************************

                    xk=(   0.00000,   0.17107,   0.07771  )

     Band symmetry, C_s (m)     double point group:

     e(  1 -  2) =    -29.78148  eV     2   --> G_3            
     e(  1 -  2) =    -29.78148  eV     2   --> G_4            
     e(  3 -  4) =    -29.78092  eV     2   --> G_3            
     e(  3 -  4) =    -29.78092  eV     2   --> G_4            
     e(  5 -  6) =    -29.78078  eV     2   --> G_3            
     e(  5 -  6) =    -29.78078  eV     2   --> G_4            
     e(  7 -  8) =    -29.77917  eV     2   --> G_3            
     e(  7 -  8) =    -29.77917  eV     2   --> G_4            
     e(  9 - 10) =    -29.77866  eV     2   --> G_3            
     e(  9 - 10) =    -29.77866  eV     2   --> G_4            
     e( 11 - 12) =    -29.77834  eV     2   --> G_3            
     e( 11 - 12) =    -29.77834  eV     2   --> G_4            
     e( 13 - 14) =    -29.73110  eV     2   --> G_3            
     e( 13 - 14) =    -29.73110  eV     2   --> G_4            
     e( 15 - 18) =    -29.73062  eV     4   -->   2 G_3            
     e( 15 - 18) =    -29.73062  eV     4   -->   2 G_4            
     e( 19 - 20) =    -29.72994  eV     2   --> G_3            
     e( 19 - 20) =    -29.72994  eV     2   --> G_4            
     e( 21 - 22) =    -29.72950  eV     2   --> G_3            
     e( 21 - 22) =    -29.72950  eV     2   --> G_4            
     e( 23 - 24) =    -29.72915  eV     2   --> G_3            
     e( 23 - 24) =    -29.72915  eV     2   --> G_4            
     e( 25 - 26) =    -28.33030  eV     2   --> G_3            
     e( 25 - 26) =    -28.33030  eV     2   --> G_4            
     e( 27 - 28) =    -28.32973  eV     2   --> G_3            
     e( 27 - 28) =    -28.32973  eV     2   --> G_4            
     e( 29 - 30) =    -28.32959  eV     2   --> G_3            
     e( 29 - 30) =    -28.32959  eV     2   --> G_4            
     e( 31 - 32) =    -28.32774  eV     2   --> G_3            
     e( 31 - 32) =    -28.32774  eV     2   --> G_4            
     e( 33 - 34) =    -28.32722  eV     2   --> G_3            
     e( 33 - 34) =    -28.32722  eV     2   --> G_4            
     e( 35 - 36) =    -28.32690  eV     2   --> G_3            
     e( 35 - 36) =    -28.32690  eV     2   --> G_4            
     e( 37 - 38) =    -28.28659  eV     2   --> G_3            
     e( 37 - 38) =    -28.28659  eV     2   --> G_4            
     e( 39 - 40) =    -28.28609  eV     2   --> G_3            
     e( 39 - 40) =    -28.28609  eV     2   --> G_4            
     e( 41 - 42) =    -28.28593  eV     2   --> G_3            
     e( 41 - 42) =    -28.28593  eV     2   --> G_4            
     e( 43 - 44) =    -28.28504  eV     2   --> G_3            
     e( 43 - 44) =    -28.28504  eV     2   --> G_4            
     e( 45 - 46) =    -28.28458  eV     2   --> G_3            
     e( 45 - 46) =    -28.28458  eV     2   --> G_4            
     e( 47 - 48) =    -28.28424  eV     2   --> G_3            
     e( 47 - 48) =    -28.28424  eV     2   --> G_4            
     e( 49 - 49) =    -28.26462  eV     1   --> G_4            
     e( 50 - 50) =    -28.26452  eV     1   --> G_3            
     e( 51 - 53) =    -28.26416  eV     3   --> G_3            
     e( 51 - 53) =    -28.26416  eV     3   -->   2 G_4            
     e( 54 - 54) =    -28.26389  eV     1   --> G_3            
     e( 55 - 56) =    -28.26350  eV     2   --> G_3            
     e( 55 - 56) =    -28.26350  eV     2   --> G_4            
     e( 57 - 57) =    -28.26308  eV     1   --> G_3            
     e( 58 - 58) =    -28.26298  eV     1   --> G_4            
     e( 59 - 59) =    -28.26273  eV     1   --> G_3            
     e( 60 - 60) =    -28.26263  eV     1   --> G_4            
     e( 61 - 61) =     -7.45900  eV     1   --> G_4            
     e( 62 - 62) =     -7.45864  eV     1   --> G_4            
     e( 63 - 64) =     -7.45847  eV     2   --> G_3            
     e( 63 - 64) =     -7.45847  eV     2   --> G_4            
     e( 65 - 65) =     -7.45813  eV     1   --> G_3            
     e( 66 - 66) =     -7.45787  eV     1   --> G_3            
     e( 67 - 68) =     -7.42576  eV     2   --> G_3            
     e( 67 - 68) =     -7.42576  eV     2   --> G_4            
     e( 69 - 70) =     -7.42537  eV     2   --> G_3            
     e( 69 - 70) =     -7.42537  eV     2   --> G_4            
     e( 71 - 72) =     -7.42515  eV     2   --> G_3            
     e( 71 - 72) =     -7.42515  eV     2   --> G_4            
     e( 73 - 73) =     -7.41671  eV     1   --> G_3            
     e( 74 - 75) =     -7.41635  eV     2   --> G_3            
     e( 74 - 75) =     -7.41635  eV     2   --> G_4            
     e( 76 - 76) =     -7.41612  eV     1   --> G_3            
     e( 77 - 77) =     -7.41594  eV     1   --> G_4            
     e( 78 - 78) =     -7.41570  eV     1   --> G_4            
     e( 79 - 80) =     -7.40560  eV     2   --> G_3            
     e( 79 - 80) =     -7.40560  eV     2   --> G_4            
     e( 81 - 82) =     -7.40526  eV     2   --> G_3            
     e( 81 - 82) =     -7.40526  eV     2   --> G_4            
     e( 83 - 84) =     -7.40501  eV     2   --> G_3            
     e( 83 - 84) =     -7.40501  eV     2   --> G_4            
     e( 85 - 85) =     -7.00559  eV     1   --> G_3            
     e( 86 - 86) =     -7.00520  eV     1   --> G_3            
     e( 87 - 87) =     -7.00507  eV     1   --> G_4            
     e( 88 - 88) =     -7.00496  eV     1   --> G_3            
     e( 89 - 89) =     -7.00471  eV     1   --> G_4            
     e( 90 - 90) =     -7.00446  eV     1   --> G_4            
     e( 91 - 91) =     -6.99554  eV     1   --> G_3            
     e( 92 - 93) =     -6.99526  eV     2   --> G_3            
     e( 92 - 93) =     -6.99526  eV     2   --> G_4            
     e( 94 - 95) =     -6.99493  eV     2   --> G_3            
     e( 94 - 95) =     -6.99493  eV     2   --> G_4            
     e( 96 - 96) =     -6.99466  eV     1   --> G_4            
     e( 97 - 97) =     -6.97665  eV     1   --> G_4            
     e( 98 - 99) =     -6.97627  eV     2   --> G_3            
     e( 98 - 99) =     -6.97627  eV     2   --> G_4            
     e(100 -100) =     -6.97604  eV     1   --> G_4            
     e(101 -101) =     -6.97581  eV     1   --> G_3            
     e(102 -102) =     -6.97558  eV     1   --> G_3            
     e(103 -104) =     -6.94403  eV     2   --> G_3            
     e(103 -104) =     -6.94403  eV     2   --> G_4            
     e(105 -106) =     -6.94369  eV     2   --> G_3            
     e(105 -106) =     -6.94369  eV     2   --> G_4            
     e(107 -108) =     -6.94346  eV     2   --> G_3            
     e(107 -108) =     -6.94346  eV     2   --> G_4            
     e(109 -110) =     -6.88777  eV     2   --> G_3            
     e(109 -110) =     -6.88777  eV     2   --> G_4            
     e(111 -112) =     -6.88742  eV     2   --> G_3            
     e(111 -112) =     -6.88742  eV     2   --> G_4            
     e(113 -114) =     -6.88718  eV     2   --> G_3            
     e(113 -114) =     -6.88718  eV     2   --> G_4            
     e(115 -115) =     -6.85840  eV     1   --> G_4            
     e(116 -116) =     -6.85830  eV     1   --> G_3            
     e(117 -118) =     -6.85806  eV     2   --> G_3            
     e(117 -118) =     -6.85806  eV     2   --> G_4            
     e(119 -119) =     -6.85784  eV     1   --> G_4            
     e(120 -120) =     -6.85774  eV     1   --> G_3            

 **************************************************************************

 **************************************************************************

                    xk=(   0.00000,   0.19245,   0.07771  )

     Band symmetry, C_s (m)     double point group:

     e(  1 -  2) =    -29.78142  eV     2   --> G_3            
     e(  1 -  2) =    -29.78142  eV     2   --> G_4            
     e(  3 -  4) =    -29.78086  eV     2   --> G_3            
     e(  3 -  4) =    -29.78086  eV     2   --> G_4            
     e(  5 -  6) =    -29.78072  eV     2   --> G_3            
     e(  5 -  6) =    -29.78072  eV     2   --> G_4            
     e(  7 -  8) =    -29.77912  eV     2   --> G_3            
     e(  7 -  8) =    -29.77912  eV     2   --> G_4            
     e(  9 - 10) =    -29.77860  eV     2   --> G_3            
     e(  9 - 10) =    -29.77860  eV     2   --> G_4            
     e( 11 - 12) =    -29.77828  eV     2   --> G_3            
     e( 11 - 12) =    -29.77828  eV     2   --> G_4            
     e( 13 - 14) =    -29.73109  eV     2   --> G_3            
     e( 13 - 14) =    -29.73109  eV     2   --> G_4            
     e( 15 - 18) =    -29.73061  eV     4   -->   2 G_3            
     e( 15 - 18) =    -29.73061  eV     4   -->   2 G_4            
     e( 19 - 20) =    -29.72993  eV     2   --> G_3            
     e( 19 - 20) =    -29.72993  eV     2   --> G_4            
     e( 21 - 22) =    -29.72949  eV     2   --> G_3            
     e( 21 - 22) =    -29.72949  eV     2   --> G_4            
     e( 23 - 24) =    -29.72914  eV     2   --> G_3            
     e( 23 - 24) =    -29.72914  eV     2   --> G_4            
     e( 25 - 26) =    -28.33020  eV     2   --> G_3            
     e( 25 - 26) =    -28.33020  eV     2   --> G_4            
     e( 27 - 28) =    -28.32963  eV     2   --> G_3            
     e( 27 - 28) =    -28.32963  eV     2   --> G_4            
     e( 29 - 30) =    -28.32949  eV     2   --> G_3            
     e( 29 - 30) =    -28.32949  eV     2   --> G_4            
     e( 31 - 32) =    -28.32765  eV     2   --> G_3            
     e( 31 - 32) =    -28.32765  eV     2   --> G_4            
     e( 33 - 34) =    -28.32713  eV     2   --> G_3            
     e( 33 - 34) =    -28.32713  eV     2   --> G_4            
     e( 35 - 36) =    -28.32681  eV     2   --> G_3            
     e( 35 - 36) =    -28.32681  eV     2   --> G_4            
     e( 37 - 38) =    -28.28660  eV     2   --> G_3            
     e( 37 - 38) =    -28.28660  eV     2   --> G_4            
     e( 39 - 40) =    -28.28610  eV     2   --> G_3            
     e( 39 - 40) =    -28.28610  eV     2   --> G_4            
     e( 41 - 42) =    -28.28594  eV     2   --> G_3            
     e( 41 - 42) =    -28.28594  eV     2   --> G_4            
     e( 43 - 44) =    -28.28506  eV     2   --> G_3            
     e( 43 - 44) =    -28.28506  eV     2   --> G_4            
     e( 45 - 46) =    -28.28459  eV     2   --> G_3            
     e( 45 - 46) =    -28.28459  eV     2   --> G_4            
     e( 47 - 48) =    -28.28425  eV     2   --> G_3            
     e( 47 - 48) =    -28.28425  eV     2   --> G_4            
     e( 49 - 49) =    -28.26458  eV     1   --> G_4            
     e( 50 - 50) =    -28.26447  eV     1   --> G_3            
     e( 51 - 53) =    -28.26412  eV     3   --> G_3            
     e( 51 - 53) =    -28.26412  eV     3   -->   2 G_4            
     e( 54 - 54) =    -28.26384  eV     1   --> G_3            
     e( 55 - 56) =    -28.26346  eV     2   --> G_3            
     e( 55 - 56) =    -28.26346  eV     2   --> G_4            
     e( 57 - 57) =    -28.26304  eV     1   --> G_3            
     e( 58 - 58) =    -28.26293  eV     1   --> G_4            
     e( 59 - 59) =    -28.26269  eV     1   --> G_3            
     e( 60 - 60) =    -28.26258  eV     1   --> G_4            
     e( 61 - 61) =     -7.45931  eV     1   --> G_4            
     e( 62 - 62) =     -7.45894  eV     1   --> G_4            
     e( 63 - 64) =     -7.45872  eV     2   --> G_3            
     e( 63 - 64) =     -7.45872  eV     2   --> G_4            
     e( 65 - 65) =     -7.45838  eV     1   --> G_3            
     e( 66 - 66) =     -7.45812  eV     1   --> G_3            
     e( 67 - 68) =     -7.42624  eV     2   --> G_3            
     e( 67 - 68) =     -7.42624  eV     2   --> G_4            
     e( 69 - 70) =     -7.42586  eV     2   --> G_3            
     e( 69 - 70) =     -7.42586  eV     2   --> G_4            
     e( 71 - 72) =     -7.42563  eV     2   --> G_3            
     e( 71 - 72) =     -7.42563  eV     2   --> G_4            
     e( 73 - 73) =     -7.41753  eV     1   --> G_3            
     e( 74 - 74) =     -7.41717  eV     1   --> G_3            
     e( 75 - 76) =     -7.41697  eV     2   --> G_3            
     e( 75 - 76) =     -7.41697  eV     2   --> G_4            
     e( 77 - 77) =     -7.41664  eV     1   --> G_4            
     e( 78 - 78) =     -7.41640  eV     1   --> G_4            
     e( 79 - 80) =     -7.40585  eV     2   --> G_3            
     e( 79 - 80) =     -7.40585  eV     2   --> G_4            
     e( 81 - 82) =     -7.40551  eV     2   --> G_3            
     e( 81 - 82) =     -7.40551  eV     2   --> G_4            
     e( 83 - 84) =     -7.40526  eV     2   --> G_3            
     e( 83 - 84) =     -7.40526  eV     2   --> G_4            
     e( 85 - 85) =     -7.00746  eV     1   --> G_3            
     e( 86 - 86) =     -7.00707  eV     1   --> G_3            
     e( 87 - 88) =     -7.00687  eV     2   --> G_3            
     e( 87 - 88) =     -7.00687  eV     2   --> G_4            
     e( 89 - 89) =     -7.00651  eV     1   --> G_4            
     e( 90 - 90) =     -7.00625  eV     1   --> G_4            
     e( 91 - 91) =     -6.99612  eV     1   --> G_3            
     e( 92 - 92) =     -6.99590  eV     1   --> G_4            
     e( 93 - 93) =     -6.99575  eV     1   --> G_3            
     e( 94 - 95) =     -6.99554  eV     2   --> G_3            
     e( 94 - 95) =     -6.99554  eV     2   --> G_4            
     e( 96 - 96) =     -6.99530  eV     1   --> G_4            
     e( 97 - 97) =     -6.97668  eV     1   --> G_4            
     e( 98 - 99) =     -6.97629  eV     2   --> G_3            
     e( 98 - 99) =     -6.97629  eV     2   --> G_4            
     e(100 -100) =     -6.97607  eV     1   --> G_4            
     e(101 -101) =     -6.97584  eV     1   --> G_3            
     e(102 -102) =     -6.97561  eV     1   --> G_3            
     e(103 -104) =     -6.94382  eV     2   --> G_3            
     e(103 -104) =     -6.94382  eV     2   --> G_4            
     e(105 -106) =     -6.94348  eV     2   --> G_3            
     e(105 -106) =     -6.94348  eV     2   --> G_4            
[...]
     e( 59 - 60) =    -28.26188  eV     2   --> G_5            
     e( 61 - 61) =     -7.46662  eV     1   --> G_5            
     e( 62 - 62) =     -7.46627  eV     1   --> G_6            
     e( 63 - 63) =     -7.46601  eV     1   --> G_4            
     e( 64 - 64) =     -7.45326  eV     1   --> G_4            
     e( 65 - 65) =     -7.45292  eV     1   --> G_5            
     e( 66 - 66) =     -7.45266  eV     1   --> G_6            
     e( 67 - 67) =     -7.45197  eV     1   --> G_6            
     e( 68 - 68) =     -7.45152  eV     1   --> G_4            
     e( 69 - 69) =     -7.45132  eV     1   --> G_5            
     e( 70 - 70) =     -7.44765  eV     1   --> G_6            
     e( 71 - 71) =     -7.44732  eV     1   --> G_4            
     e( 72 - 72) =     -7.44708  eV     1   --> G_5            
     e( 73 - 73) =     -7.43455  eV     1   --> G_5            
     e( 74 - 74) =     -7.43419  eV     1   --> G_6            
     e( 75 - 75) =     -7.43394  eV     1   --> G_4            
     e( 76 - 77) =     -7.40894  eV     2   --> G_4            
     e( 76 - 77) =     -7.40894  eV     2   --> G_6            
     e( 78 - 79) =     -7.40860  eV     2   --> G_4            
     e( 78 - 79) =     -7.40860  eV     2   --> G_5            
     e( 80 - 81) =     -7.40835  eV     2   --> G_5            
     e( 80 - 81) =     -7.40835  eV     2   --> G_6            
     e( 82 - 82) =     -7.40323  eV     1   --> G_6            
     e( 83 - 83) =     -7.40291  eV     1   --> G_4            
     e( 84 - 84) =     -7.40267  eV     1   --> G_5            
     e( 85 - 85) =     -7.04338  eV     1   --> G_5            
     e( 86 - 86) =     -7.04298  eV     1   --> G_6            
     e( 87 - 87) =     -7.04276  eV     1   --> G_4            
     e( 88 - 88) =     -7.02310  eV     1   --> G_6            
     e( 89 - 89) =     -7.02273  eV     1   --> G_4            
     e( 90 - 90) =     -7.02249  eV     1   --> G_5            
     e( 91 - 91) =     -7.01933  eV     1   --> G_6            
     e( 92 - 92) =     -7.01896  eV     1   --> G_4            
     e( 93 - 93) =     -7.01872  eV     1   --> G_5            
     e( 94 - 94) =     -7.00039  eV     1   --> G_5            
     e( 95 - 95) =     -6.99999  eV     1   --> G_6            
     e( 96 - 96) =     -6.99978  eV     1   --> G_4            
     e( 97 - 97) =     -6.98925  eV     1   --> G_4            
     e( 98 - 98) =     -6.98891  eV     1   --> G_5            
     e( 99 - 99) =     -6.98866  eV     1   --> G_6            
     e(100 -100) =     -6.95658  eV     1   --> G_4            
     e(101 -101) =     -6.95622  eV     1   --> G_5            
     e(102 -102) =     -6.95599  eV     1   --> G_6            
     e(103 -103) =     -6.94139  eV     1   --> G_5            
     e(104 -104) =     -6.94104  eV     1   --> G_6            
     e(105 -105) =     -6.94081  eV     1   --> G_4            
     e(106 -106) =     -6.93206  eV     1   --> G_4            
     e(107 -107) =     -6.93172  eV     1   --> G_5            
     e(108 -108) =     -6.93150  eV     1   --> G_6            
     e(109 -109) =     -6.91236  eV     1   --> G_6            
     e(110 -110) =     -6.91201  eV     1   --> G_4            
     e(111 -111) =     -6.91179  eV     1   --> G_5            
     e(112 -112) =     -6.89603  eV     1   --> G_6            
     e(113 -113) =     -6.89569  eV     1   --> G_4            
     e(114 -114) =     -6.89546  eV     1   --> G_5            
     e(115 -115) =     -6.84594  eV     1   --> G_5            
     e(116 -116) =     -6.84562  eV     1   --> G_6            
     e(117 -117) =     -6.84540  eV     1   --> G_4            
     e(118 -118) =     -6.84277  eV     1   --> G_4            
     e(119 -119) =     -6.84245  eV     1   --> G_5            
     e(120 -120) =     -6.84223  eV     1   --> G_6            

 **************************************************************************

 **************************************************************************

                    xk=(   0.33333,   0.57734,   0.01943  )

     Band symmetry, C_3 (3)     double point group:

     e(  1 -  1) =    -29.78056  eV     1   --> G_4            
     e(  2 -  2) =    -29.78018  eV     1   --> G_4            
     e(  3 -  3) =    -29.78000  eV     1   --> G_6            
     e(  4 -  4) =    -29.77986  eV     1   --> G_5            
     e(  5 -  5) =    -29.77962  eV     1   --> G_6            
     e(  6 -  6) =    -29.77948  eV     1   --> G_5            
     e(  7 -  7) =    -29.77826  eV     1   --> G_4            
     e(  8 -  8) =    -29.77788  eV     1   --> G_4            
     e(  9 -  9) =    -29.77775  eV     1   --> G_5            
     e( 10 - 11) =    -29.77742  eV     2   --> G_5            
     e( 10 - 11) =    -29.77742  eV     2   --> G_6            
     e( 12 - 12) =    -29.77704  eV     1   --> G_6            
     e( 13 - 14) =    -29.73082  eV     2   --> G_5            
     e( 13 - 14) =    -29.73082  eV     2   --> G_6            
     e( 15 - 18) =    -29.73033  eV     4   -->   2 G_4            
     e( 15 - 18) =    -29.73033  eV     4   --> G_5            
     e( 15 - 18) =    -29.73033  eV     4   --> G_6            
     e( 19 - 20) =    -29.72973  eV     2   --> G_5            
     e( 19 - 20) =    -29.72973  eV     2   --> G_6            
     e( 21 - 22) =    -29.72926  eV     2   --> G_4            
     e( 21 - 22) =    -29.72926  eV     2   --> G_6            
     e( 23 - 24) =    -29.72892  eV     2   --> G_4            
     e( 23 - 24) =    -29.72892  eV     2   --> G_5            
     e( 25 - 25) =    -28.32872  eV     1   --> G_5            
     e( 26 - 27) =    -28.32825  eV     2   --> G_4            
     e( 26 - 27) =    -28.32825  eV     2   --> G_6            
     e( 28 - 28) =    -28.32801  eV     1   --> G_6            
     e( 29 - 29) =    -28.32768  eV     1   --> G_5            
     e( 30 - 30) =    -28.32754  eV     1   --> G_4            
     e( 31 - 31) =    -28.32617  eV     1   --> G_5            
     e( 32 - 33) =    -28.32569  eV     2   -->   2 G_6            
     e( 34 - 34) =    -28.32533  eV     1   --> G_4            
     e( 35 - 35) =    -28.32517  eV     1   --> G_4            
     e( 36 - 36) =    -28.32485  eV     1   --> G_5            
     e( 37 - 37) =    -28.28699  eV     1   --> G_4            
     e( 38 - 38) =    -28.28665  eV     1   --> G_4            
     e( 39 - 39) =    -28.28647  eV     1   --> G_6            
     e( 40 - 40) =    -28.28632  eV     1   --> G_5            
     e( 41 - 41) =    -28.28613  eV     1   --> G_6            
     e( 42 - 42) =    -28.28598  eV     1   --> G_5            
     e( 43 - 43) =    -28.28549  eV     1   --> G_4            
     e( 44 - 44) =    -28.28515  eV     1   --> G_4            
     e( 45 - 45) =    -28.28500  eV     1   --> G_5            
     e( 46 - 47) =    -28.28467  eV     2   --> G_5            
     e( 46 - 47) =    -28.28467  eV     2   --> G_6            
     e( 48 - 48) =    -28.28433  eV     1   --> G_6            
     e( 49 - 50) =    -28.26372  eV     2   --> G_5            
     e( 49 - 50) =    -28.26372  eV     2   --> G_6            
     e( 51 - 52) =    -28.26324  eV     2   --> G_4            
     e( 51 - 52) =    -28.26324  eV     2   --> G_5            
     e( 53 - 54) =    -28.26309  eV     2   --> G_4            
     e( 53 - 54) =    -28.26309  eV     2   --> G_6            
     e( 55 - 56) =    -28.26269  eV     2   --> G_5            
     e( 55 - 56) =    -28.26269  eV     2   --> G_6            
     e( 57 - 58) =    -28.26223  eV     2   --> G_4            
     e( 57 - 58) =    -28.26223  eV     2   --> G_6            
     e( 59 - 60) =    -28.26188  eV     2   --> G_4            
     e( 59 - 60) =    -28.26188  eV     2   --> G_5            
     e( 61 - 61) =     -7.46662  eV     1   --> G_5            
     e( 62 - 62) =     -7.46627  eV     1   --> G_6            
     e( 63 - 63) =     -7.46601  eV     1   --> G_4            
     e( 64 - 64) =     -7.45326  eV     1   --> G_4            
     e( 65 - 65) =     -7.45292  eV     1   --> G_5            
     e( 66 - 66) =     -7.45266  eV     1   --> G_6            
     e( 67 - 67) =     -7.45197  eV     1   --> G_6            
     e( 68 - 68) =     -7.45152  eV     1   --> G_4            
     e( 69 - 69) =     -7.45132  eV     1   --> G_5            
     e( 70 - 70) =     -7.44765  eV     1   --> G_6            
     e( 71 - 71) =     -7.44732  eV     1   --> G_4            
     e( 72 - 72) =     -7.44708  eV     1   --> G_5            
     e( 73 - 73) =     -7.43455  eV     1   --> G_5            
     e( 74 - 74) =     -7.43419  eV     1   --> G_6            
     e( 75 - 75) =     -7.43394  eV     1   --> G_4            
     e( 76 - 77) =     -7.40894  eV     2   --> G_4            
     e( 76 - 77) =     -7.40894  eV     2   --> G_6            
     e( 78 - 79) =     -7.40860  eV     2   --> G_4            
     e( 78 - 79) =     -7.40860  eV     2   --> G_5            
     e( 80 - 81) =     -7.40835  eV     2   --> G_5            
     e( 80 - 81) =     -7.40835  eV     2   --> G_6            
     e( 82 - 82) =     -7.40323  eV     1   --> G_6            
     e( 83 - 83) =     -7.40291  eV     1   --> G_4            
     e( 84 - 84) =     -7.40267  eV     1   --> G_5            
     e( 85 - 85) =     -7.04338  eV     1   --> G_5            
     e( 86 - 86) =     -7.04298  eV     1   --> G_6            
     e( 87 - 87) =     -7.04276  eV     1   --> G_4            
     e( 88 - 88) =     -7.02310  eV     1   --> G_6            
     e( 89 - 89) =     -7.02273  eV     1   --> G_4            
     e( 90 - 90) =     -7.02249  eV     1   --> G_5            
     e( 91 - 91) =     -7.01933  eV     1   --> G_6            
     e( 92 - 92) =     -7.01896  eV     1   --> G_4            
     e( 93 - 93) =     -7.01872  eV     1   --> G_5            
     e( 94 - 94) =     -7.00039  eV     1   --> G_5            
     e( 95 - 95) =     -6.99999  eV     1   --> G_6            
     e( 96 - 96) =     -6.99978  eV     1   --> G_4            
     e( 97 - 97) =     -6.98925  eV     1   --> G_4            
     e( 98 - 98) =     -6.98891  eV     1   --> G_5            
     e( 99 - 99) =     -6.98866  eV     1   --> G_6            
     e(100 -100) =     -6.95658  eV     1   --> G_4            
     e(101 -101) =     -6.95622  eV     1   --> G_5            
     e(102 -102) =     -6.95599  eV     1   --> G_6            
     e(103 -103) =     -6.94139  eV     1   --> G_5            
     e(104 -104) =     -6.94104  eV     1   --> G_6            
     e(105 -105) =     -6.94081  eV     1   --> G_4            
     e(106 -106) =     -6.93206  eV     1   --> G_4            
     e(107 -107) =     -6.93172  eV     1   --> G_5            
     e(108 -108) =     -6.93150  eV     1   --> G_6            
     e(109 -109) =     -6.91236  eV     1   --> G_6            
     e(110 -110) =     -6.91201  eV     1   --> G_4            
     e(111 -111) =     -6.91179  eV     1   --> G_5            
     e(112 -112) =     -6.89603  eV     1   --> G_6            
     e(113 -113) =     -6.89569  eV     1   --> G_4            
     e(114 -114) =     -6.89546  eV     1   --> G_5            
     e(115 -115) =     -6.84594  eV     1   --> G_5            
     e(116 -116) =     -6.84562  eV     1   --> G_6            
     e(117 -117) =     -6.84540  eV     1   --> G_4            
     e(118 -118) =     -6.84277  eV     1   --> G_4            
     e(119 -119) =     -6.84245  eV     1   --> G_5            
     e(120 -120) =     -6.84223  eV     1   --> G_6            

 **************************************************************************

 **************************************************************************

                    xk=(   0.33333,   0.57734,  -0.00000  )

     Band symmetry, C_3 (3)     double point group:

     e(  1 -  1) =    -29.78056  eV     1   --> G_4            
     e(  2 -  2) =    -29.78018  eV     1   --> G_4            
     e(  3 -  3) =    -29.78000  eV     1   --> G_6            
     e(  4 -  4) =    -29.77986  eV     1   --> G_5            
     e(  5 -  5) =    -29.77962  eV     1   --> G_6            
     e(  6 -  6) =    -29.77948  eV     1   --> G_5            
     e(  7 -  7) =    -29.77826  eV     1   --> G_4            
     e(  8 -  8) =    -29.77788  eV     1   --> G_4            
     e(  9 -  9) =    -29.77775  eV     1   --> G_5            
     e( 10 - 11) =    -29.77742  eV     2   --> G_5            
     e( 10 - 11) =    -29.77742  eV     2   --> G_6            
     e( 12 - 12) =    -29.77704  eV     1   --> G_6            
     e( 13 - 14) =    -29.73082  eV     2   --> G_5            
     e( 13 - 14) =    -29.73082  eV     2   --> G_6            
     e( 15 - 18) =    -29.73033  eV     4   -->   2 G_4            
     e( 15 - 18) =    -29.73033  eV     4   --> G_5            
     e( 15 - 18) =    -29.73033  eV     4   --> G_6            
     e( 19 - 20) =    -29.72973  eV     2   --> G_5            
     e( 19 - 20) =    -29.72973  eV     2   --> G_6            
     e( 21 - 22) =    -29.72926  eV     2   --> G_4            
     e( 21 - 22) =    -29.72926  eV     2   --> G_6            
     e( 23 - 24) =    -29.72892  eV     2   --> G_4            
     e( 23 - 24) =    -29.72892  eV     2   --> G_5            
     e( 25 - 25) =    -28.32872  eV     1   --> G_5            
     e( 26 - 27) =    -28.32825  eV     2   --> G_4            
     e( 26 - 27) =    -28.32825  eV     2   --> G_6            
     e( 28 - 28) =    -28.32801  eV     1   --> G_6            
     e( 29 - 29) =    -28.32768  eV     1   --> G_5            
     e( 30 - 30) =    -28.32754  eV     1   --> G_4            
     e( 31 - 31) =    -28.32617  eV     1   --> G_5            
     e( 32 - 33) =    -28.32569  eV     2   -->   2 G_6            
     e( 34 - 34) =    -28.32533  eV     1   --> G_4            
     e( 35 - 35) =    -28.32517  eV     1   --> G_4            
     e( 36 - 36) =    -28.32485  eV     1   --> G_5            
     e( 37 - 37) =    -28.28699  eV     1   --> G_4            
     e( 38 - 38) =    -28.28665  eV     1   --> G_4            
     e( 39 - 39) =    -28.28647  eV     1   --> G_6            
     e( 40 - 40) =    -28.28632  eV     1   --> G_5            
     e( 41 - 41) =    -28.28613  eV     1   --> G_6            
     e( 42 - 42) =    -28.28598  eV     1   --> G_5            
     e( 43 - 43) =    -28.28549  eV     1   --> G_4            
     e( 44 - 44) =    -28.28515  eV     1   --> G_4            
     e( 45 - 45) =    -28.28500  eV     1   --> G_5            
     e( 46 - 47) =    -28.28467  eV     2   --> G_5            
     e( 46 - 47) =    -28.28467  eV     2   --> G_6            
     e( 48 - 48) =    -28.28433  eV     1   --> G_6            
     e( 49 - 50) =    -28.26372  eV     2   --> G_5            
     e( 49 - 50) =    -28.26372  eV     2   --> G_6            
     e( 51 - 52) =    -28.26324  eV     2   --> G_4            
     e( 51 - 52) =    -28.26324  eV     2   --> G_5            
     e( 53 - 54) =    -28.26309  eV     2   --> G_4            
     e( 53 - 54) =    -28.26309  eV     2   --> G_6            
     e( 55 - 56) =    -28.26269  eV     2   --> G_5            
     e( 55 - 56) =    -28.26269  eV     2   --> G_6            
     e( 57 - 58) =    -28.26223  eV     2   --> G_4            
     e( 57 - 58) =    -28.26223  eV     2   --> G_6            
     e( 59 - 60) =    -28.26188  eV     2   --> G_4            
     e( 59 - 60) =    -28.26188  eV     2   --> G_5            
     e( 61 - 61) =     -7.46662  eV     1   --> G_5            
     e( 62 - 62) =     -7.46627  eV     1   --> G_6            
     e( 63 - 63) =     -7.46601  eV     1   --> G_4            
     e( 64 - 64) =     -7.45326  eV     1   --> G_4            
     e( 65 - 65) =     -7.45292  eV     1   --> G_5            
     e( 66 - 66) =     -7.45266  eV     1   --> G_6            
     e( 67 - 67) =     -7.45197  eV     1   --> G_6            
     e( 68 - 68) =     -7.45152  eV     1   --> G_4            
     e( 69 - 69) =     -7.45132  eV     1   --> G_5            
     e( 70 - 70) =     -7.44765  eV     1   --> G_6            
     e( 71 - 71) =     -7.44732  eV     1   --> G_4            
     e( 72 - 72) =     -7.44708  eV     1   --> G_5            
     e( 73 - 73) =     -7.43455  eV     1   --> G_5            
     e( 74 - 74) =     -7.43419  eV     1   --> G_6            
     e( 75 - 75) =     -7.43394  eV     1   --> G_4            
     e( 76 - 77) =     -7.40894  eV     2   --> G_4            
     e( 76 - 77) =     -7.40894  eV     2   --> G_6            
     e( 78 - 79) =     -7.40860  eV     2   --> G_4            
     e( 78 - 79) =     -7.40860  eV     2   --> G_5            
     e( 80 - 81) =     -7.40835  eV     2   --> G_5            
     e( 80 - 81) =     -7.40835  eV     2   --> G_6            
     e( 82 - 82) =     -7.40323  eV     1   --> G_6            
     e( 83 - 83) =     -7.40291  eV     1   --> G_4            
     e( 84 - 84) =     -7.40267  eV     1   --> G_5            
     e( 85 - 85) =     -7.04338  eV     1   --> G_5            
     e( 86 - 86) =     -7.04298  eV     1   --> G_6            
     e( 87 - 87) =     -7.04276  eV     1   --> G_4            
     e( 88 - 88) =     -7.02310  eV     1   --> G_6            
     e( 89 - 89) =     -7.02273  eV     1   --> G_4            
     e( 90 - 90) =     -7.02249  eV     1   --> G_5            
     e( 91 - 91) =     -7.01933  eV     1   --> G_6            
     e( 92 - 92) =     -7.01896  eV     1   --> G_4            
     e( 93 - 93) =     -7.01872  eV     1   --> G_5            
     e( 94 - 94) =     -7.00039  eV     1   --> G_5            
     e( 95 - 95) =     -6.99999  eV     1   --> G_6            
     e( 96 - 96) =     -6.99978  eV     1   --> G_4            
     e( 97 - 97) =     -6.98925  eV     1   --> G_4            
     e( 98 - 98) =     -6.98891  eV     1   --> G_5            
     e( 99 - 99) =     -6.98866  eV     1   --> G_6            
     e(100 -100) =     -6.95658  eV     1   --> G_4            
     e(101 -101) =     -6.95622  eV     1   --> G_5            
     e(102 -102) =     -6.95599  eV     1   --> G_6            
     e(103 -103) =     -6.94139  eV     1   --> G_5            
     e(104 -104) =     -6.94104  eV     1   --> G_6            
     e(105 -105) =     -6.94081  eV     1   --> G_4            
     e(106 -106) =     -6.93206  eV     1   --> G_4            
     e(107 -107) =     -6.93172  eV     1   --> G_5            
     e(108 -108) =     -6.93150  eV     1   --> G_6            
     e(109 -109) =     -6.91236  eV     1   --> G_6            
     e(110 -110) =     -6.91201  eV     1   --> G_4            
     e(111 -111) =     -6.91179  eV     1   --> G_5            
     e(112 -112) =     -6.89603  eV     1   --> G_6            
     e(113 -113) =     -6.89569  eV     1   --> G_4            
     e(114 -114) =     -6.89547  eV     1   --> G_5            
     e(115 -115) =     -6.84594  eV     1   --> G_5            
     e(116 -116) =     -6.84562  eV     1   --> G_6            
     e(117 -117) =     -6.84540  eV     1   --> G_4            
     e(118 -118) =     -6.84277  eV     1   --> G_4            
     e(119 -119) =     -6.84245  eV     1   --> G_5            
     e(120 -120) =     -6.84223  eV     1   --> G_6            

 **************************************************************************
 
     BANDS        : 39m20.19s CPU    40m35.85s WALL

 
   This run was terminated on:  14: 6:34   7Apr2022            

=------------------------------------------------------------------------------=
   JOB DONE.
=------------------------------------------------------------------------------=
