
     Program PWSCF v.6.1 (svn rev. 13369) starts on  7Apr2022 at  0: 8:12 

     This program is part of the open-source Quantum ESPRESSO suite
     for quantum simulation of materials; please cite
         "P. Giannozzi et al., J. Phys.:Condens. Matter 21 395502 (2009);
          URL http://www.quantum-espresso.org", 
     in publications or presentations arising from this work. More details at
     http://www.quantum-espresso.org/quote

     Parallel version (MPI), running on    48 processors
     R & G space division:  proc/nbgrp/npool/nimage =      48
     Reading input from GaTegamma_relax.in
Warning: card &IONS ignored
Warning: card / ignored
Warning: card &CELL ignored
Warning: card     CELL_DOFREE='ALL' ignored
Warning: card / ignored

     Current dimensions of program PWSCF are:
     Max number of different atomic species (ntypx) = 10
     Max number of k-points (npk) =  40000
     Max angular momentum in pseudopotentials (lmaxx) =  3

     IMPORTANT: XC functional enforced from input :
     Exchange-correlation      = SLA+PW+PSX+PSC ( 1  4 10  8 0 0)
     Any further DFT definition will be discarded
     Please, verify this is what you really want


     Subspace diagonalization in iterative solution of the eigenvalue problem:
     one sub-group per band group will be used
     scalapack distributed-memory algorithm (size of sub-group:  4*  4 procs)

 
     Parallelization info
     --------------------
     sticks:   dense  smooth     PW     G-vecs:    dense   smooth      PW
     Min          51      51     14                13187    13187    1870
     Max          52      52     15                13219    13219    1894
     Sum        2455    2455    673               633693   633693   90443
 


     bravais-lattice index     =            0
     lattice parameter (alat)  =       7.7111  a.u.
     unit-cell volume          =    2554.9996 (a.u.)^3
     number of atoms/cell      =           12
     number of atomic types    =            2
     number of electrons       =       174.00
     number of Kohn-Sham states=          174
     kinetic-energy cutoff     =     150.0000  Ry
     charge density cutoff     =     600.0000  Ry
     convergence threshold     =      7.0E-10
     mixing beta               =       0.7000
     number of iterations used =            8  plain     mixing
     Exchange-correlation      = SLA+PW+PSX+PSC ( 1  4 10  8 0 0)
     Non magnetic calculation with spin-orbit


     celldm(1)=   7.711093  celldm(2)=   0.000000  celldm(3)=   0.000000
     celldm(4)=   0.000000  celldm(5)=   0.000000  celldm(6)=   0.000000

     crystal axes: (cart. coord. in units of alat)
               a(1) = (   1.000000   0.000000   0.000000 )  
               a(2) = (  -0.500000   0.866025   0.000000 )  
               a(3) = (   0.000000   0.000000   6.434464 )  

     reciprocal axes: (cart. coord. in units 2 pi/alat)
               b(1) = (  1.000000  0.577350 -0.000000 )  
               b(2) = (  0.000000  1.154701 -0.000000 )  
               b(3) = (  0.000000  0.000000  0.155413 )  


     PseudoPot. # 1 for Ga read from file:
     /home/mclaro/pseudo/ONCVPSP/sg15/Ga_ONCV_PBE_fr.upf
     MD5 check sum: 291fdaf421ec3a7833e0cf5917f67014
     Pseudo is Norm-conserving, Zval = 13.0
     Generated using ONCVPSP code by D. R. Hamann
     Using radial grid of 1926 points, 10 beta functions with: 
                l(1) =   0
                l(2) =   0
                l(3) =   1
                l(4) =   1
                l(5) =   1
                l(6) =   1
                l(7) =   2
                l(8) =   2
                l(9) =   2
               l(10) =   2

     PseudoPot. # 2 for Te read from file:
     /home/mclaro/pseudo/ONCVPSP/sg15/Te_ONCV_PBE_fr.upf
     MD5 check sum: fbe956063e00beff679dd20f3414d505
     Pseudo is Norm-conserving, Zval = 16.0
     Generated using ONCVPSP code by D. R. Hamann
     Using radial grid of 1324 points, 10 beta functions with: 
                l(1) =   0
                l(2) =   0
                l(3) =   1
                l(4) =   1
                l(5) =   1
                l(6) =   1
                l(7) =   2
                l(8) =   2
                l(9) =   2
               l(10) =   2

     atomic species   valence    mass     pseudopotential
        Ga            13.00    69.72300     Ga( 1.00)
        Te            16.00   127.60000     Te( 1.00)

      6 Sym. Ops. (no inversion) found


                                    s                        frac. trans.

      isym =  1     identity                                     

 cryst.   s( 1) = (     1          0          0      )
                  (     0          1          0      )
                  (     0          0          1      )

 cart.    s( 1) = (  1.0000000  0.0000000  0.0000000 )
                  (  0.0000000  1.0000000 -0.0000000 )
                  (  0.0000000  0.0000000  1.0000000 )


      isym =  2     120 deg rotation - cryst. axis [0,0,1]       

 cryst.   s( 2) = (     0          1          0      )
                  (    -1         -1          0      )
                  (     0          0          1      )

 cart.    s( 2) = ( -0.5000000 -0.8660254  0.0000000 )
                  (  0.8660254 -0.5000000  0.0000000 )
                  (  0.0000000  0.0000000  1.0000000 )


      isym =  3     120 deg rotation - cryst. axis [0,0,-1]      

 cryst.   s( 3) = (    -1         -1          0      )
                  (     1          0          0      )
                  (     0          0          1      )

 cart.    s( 3) = ( -0.5000000  0.8660254  0.0000000 )
                  ( -0.8660254 -0.5000000  0.0000000 )
                  (  0.0000000  0.0000000  1.0000000 )


      isym =  4     inv. 180 deg rotation - cart. axis [1,0,0]   

 cryst.   s( 4) = (    -1          0          0      )
                  (     1          1          0      )
                  (     0          0          1      )

 cart.    s( 4) = ( -1.0000000  0.0000000  0.0000000 )
                  (  0.0000000  1.0000000 -0.0000000 )
                  (  0.0000000  0.0000000  1.0000000 )


      isym =  5     inv. 180 deg rotation - cryst. axis [0,1,0]  

 cryst.   s( 5) = (     1          1          0      )
                  (     0         -1          0      )
                  (     0          0          1      )

 cart.    s( 5) = (  0.5000000  0.8660254 -0.0000000 )
                  (  0.8660254 -0.5000000  0.0000000 )
                  (  0.0000000  0.0000000  1.0000000 )


      isym =  6     inv. 180 deg rotation - cryst. axis [1,1,0]  

 cryst.   s( 6) = (     0         -1          0      )
                  (    -1          0          0      )
                  (     0          0          1      )

 cart.    s( 6) = (  0.5000000 -0.8660254  0.0000000 )
                  ( -0.8660254 -0.5000000  0.0000000 )
                  (  0.0000000  0.0000000  1.0000000 )


   Cartesian axes

     site n.     atom                  positions (alat units)
         1           Te  tau(   1) = (   0.0000000   0.0000000   1.5102917  )
         2           Te  tau(   2) = (  -0.0000000   0.5773503   0.6324782  )
         3           Te  tau(   3) = (   0.5000000   0.2886751   3.6558143  )
         4           Te  tau(   4) = (   0.0000000   0.0000000   2.7766336  )
         5           Te  tau(   5) = (  -0.0000000   0.5773503   5.8007384  )
         6           Te  tau(   6) = (   0.5000000   0.2886751   4.9221836  )
         7           Ga  tau(   7) = (   0.5000000   0.2886751   1.8326944  )
         8           Ga  tau(   8) = (   0.0000000   0.0000000   0.3093425  )
         9           Ga  tau(   9) = (  -0.0000000   0.5773503   3.9782367  )
        10           Ga  tau(  10) = (   0.5000000   0.2886751   2.4534483  )
        11           Ga  tau(  11) = (   0.0000000   0.0000000   6.1230817  )
        12           Ga  tau(  12) = (  -0.0000000   0.5773503   4.5989740  )

   Crystallographic axes

     site n.     atom                  positions (cryst. coord.)
         1           Te  tau(   1) = (  0.0000000  0.0000000  0.2347191  )
         2           Te  tau(   2) = (  0.3333333  0.6666667  0.0982954  )
         3           Te  tau(   3) = (  0.6666667  0.3333333  0.5681614  )
         4           Te  tau(   4) = (  0.0000000  0.0000000  0.4315252  )
         5           Te  tau(   5) = (  0.3333333  0.6666667  0.9015107  )
         6           Te  tau(   6) = (  0.6666667  0.3333333  0.7649718  )
         7           Ga  tau(   7) = (  0.6666667  0.3333333  0.2848247  )
         8           Ga  tau(   8) = (  0.0000000  0.0000000  0.0480759  )
         9           Ga  tau(   9) = (  0.3333333  0.6666667  0.6182701  )
        10           Ga  tau(  10) = (  0.6666667  0.3333333  0.3812980  )
        11           Ga  tau(  11) = (  0.0000000  0.0000000  0.9516071  )
        12           Ga  tau(  12) = (  0.3333333  0.6666667  0.7147408  )

     number of k points=   119
                       cart. coord. in units 2pi/alat
        k(    1) = (   0.0000000   0.0000000   0.0000000), wk =   0.0008889
        k(    2) = (   0.0000000   0.0000000   0.0310826), wk =   0.0017778
        k(    3) = (   0.0000000   0.0000000   0.0621652), wk =   0.0017778
        k(    4) = (   0.0000000   0.0769800  -0.0000000), wk =   0.0053333
        k(    5) = (   0.0000000   0.0769800   0.0310826), wk =   0.0053333
        k(    6) = (   0.0000000   0.0769800   0.0621652), wk =   0.0053333
        k(    7) = (   0.0000000   0.1539601  -0.0000000), wk =   0.0053333
        k(    8) = (   0.0000000   0.1539601   0.0310826), wk =   0.0053333
        k(    9) = (   0.0000000   0.1539601   0.0621652), wk =   0.0053333
        k(   10) = (   0.0000000   0.2309401  -0.0000000), wk =   0.0053333
        k(   11) = (   0.0000000   0.2309401   0.0310826), wk =   0.0053333
        k(   12) = (   0.0000000   0.2309401   0.0621652), wk =   0.0053333
        k(   13) = (   0.0000000   0.3079201  -0.0000000), wk =   0.0053333
        k(   14) = (   0.0000000   0.3079201   0.0310826), wk =   0.0053333
        k(   15) = (   0.0000000   0.3079201   0.0621652), wk =   0.0053333
        k(   16) = (   0.0000000   0.3849002  -0.0000000), wk =   0.0053333
        k(   17) = (   0.0000000   0.3849002   0.0310826), wk =   0.0053333
        k(   18) = (   0.0000000   0.3849002   0.0621652), wk =   0.0053333
        k(   19) = (   0.0000000   0.4618802  -0.0000000), wk =   0.0053333
        k(   20) = (   0.0000000   0.4618802   0.0310826), wk =   0.0053333
        k(   21) = (   0.0000000   0.4618802   0.0621652), wk =   0.0053333
        k(   22) = (   0.0000000   0.5388603  -0.0000000), wk =   0.0053333
        k(   23) = (   0.0000000   0.5388603   0.0310826), wk =   0.0053333
        k(   24) = (   0.0000000   0.5388603   0.0621652), wk =   0.0053333
        k(   25) = (   0.0666667   0.1154701  -0.0000000), wk =   0.0053333
        k(   26) = (   0.0666667   0.1154701   0.0310826), wk =   0.0106667
        k(   27) = (   0.0666667   0.1154701   0.0621652), wk =   0.0106667
        k(   28) = (   0.0666667   0.1924501  -0.0000000), wk =   0.0106667
        k(   29) = (   0.0666667   0.1924501   0.0310826), wk =   0.0106667
        k(   30) = (   0.0666667   0.1924501   0.0621652), wk =   0.0106667
        k(   31) = (   0.0666667   0.2694301  -0.0000000), wk =   0.0106667
        k(   32) = (   0.0666667   0.2694301   0.0310826), wk =   0.0106667
        k(   33) = (   0.0666667   0.2694301   0.0621652), wk =   0.0106667
        k(   34) = (   0.0666667   0.3464102  -0.0000000), wk =   0.0106667
        k(   35) = (   0.0666667   0.3464102   0.0310826), wk =   0.0106667
        k(   36) = (   0.0666667   0.3464102   0.0621652), wk =   0.0106667
        k(   37) = (   0.0666667   0.4233902  -0.0000000), wk =   0.0106667
        k(   38) = (   0.0666667   0.4233902   0.0310826), wk =   0.0106667
        k(   39) = (   0.0666667   0.4233902   0.0621652), wk =   0.0106667
        k(   40) = (   0.0666667   0.5003702  -0.0000000), wk =   0.0106667
        k(   41) = (   0.0666667   0.5003702   0.0310826), wk =   0.0106667
        k(   42) = (   0.0666667   0.5003702   0.0621652), wk =   0.0106667
        k(   43) = (   0.0666667   0.5773503  -0.0000000), wk =   0.0053333
        k(   44) = (   0.0666667   0.5773503   0.0310826), wk =   0.0106667
        k(   45) = (   0.0666667   0.5773503   0.0621652), wk =   0.0106667
        k(   46) = (   0.1333333   0.2309401  -0.0000000), wk =   0.0053333
        k(   47) = (   0.1333333   0.2309401   0.0310826), wk =   0.0106667
        k(   48) = (   0.1333333   0.2309401   0.0621652), wk =   0.0106667
        k(   49) = (   0.1333333   0.3079201  -0.0000000), wk =   0.0106667
        k(   50) = (   0.1333333   0.3079201   0.0310826), wk =   0.0106667
        k(   51) = (   0.1333333   0.3079201   0.0621652), wk =   0.0106667
        k(   52) = (   0.1333333   0.3849002  -0.0000000), wk =   0.0106667
        k(   53) = (   0.1333333   0.3849002   0.0310826), wk =   0.0106667
        k(   54) = (   0.1333333   0.3849002   0.0621652), wk =   0.0106667
        k(   55) = (   0.1333333   0.4618802  -0.0000000), wk =   0.0106667
        k(   56) = (   0.1333333   0.4618802   0.0310826), wk =   0.0106667
        k(   57) = (   0.1333333   0.4618802   0.0621652), wk =   0.0106667
        k(   58) = (   0.1333333   0.5388603  -0.0000000), wk =   0.0106667
        k(   59) = (   0.1333333   0.5388603   0.0310826), wk =   0.0106667
        k(   60) = (   0.1333333   0.5388603   0.0621652), wk =   0.0106667
        k(   61) = (   0.2000000   0.3464102  -0.0000000), wk =   0.0053333
        k(   62) = (   0.2000000   0.3464102   0.0310826), wk =   0.0106667
        k(   63) = (   0.2000000   0.3464102   0.0621652), wk =   0.0106667
        k(   64) = (   0.2000000   0.4233902  -0.0000000), wk =   0.0106667
        k(   65) = (   0.2000000   0.4233902   0.0310826), wk =   0.0106667
        k(   66) = (   0.2000000   0.4233902   0.0621652), wk =   0.0106667
        k(   67) = (   0.2000000   0.5003702  -0.0000000), wk =   0.0106667
        k(   68) = (   0.2000000   0.5003702   0.0310826), wk =   0.0106667
        k(   69) = (   0.2000000   0.5003702   0.0621652), wk =   0.0106667
        k(   70) = (   0.2000000   0.5773503  -0.0000000), wk =   0.0053333
        k(   71) = (   0.2000000   0.5773503   0.0310826), wk =   0.0106667
        k(   72) = (   0.2000000   0.5773503   0.0621652), wk =   0.0106667
        k(   73) = (   0.2666667   0.4618802  -0.0000000), wk =   0.0053333
        k(   74) = (   0.2666667   0.4618802   0.0310826), wk =   0.0106667
        k(   75) = (   0.2666667   0.4618802   0.0621652), wk =   0.0106667
        k(   76) = (   0.2666667   0.5388603  -0.0000000), wk =   0.0106667
        k(   77) = (   0.2666667   0.5388603   0.0310826), wk =   0.0106667
        k(   78) = (   0.2666667   0.5388603   0.0621652), wk =   0.0106667
        k(   79) = (   0.3333333   0.5773503  -0.0000000), wk =   0.0017778
        k(   80) = (   0.3333333   0.5773503   0.0310826), wk =   0.0035556
        k(   81) = (   0.3333333   0.5773503   0.0621652), wk =   0.0035556
        k(   82) = (   0.0000000  -0.0769800   0.0310826), wk =   0.0053333
        k(   83) = (   0.0000000  -0.0769800   0.0621652), wk =   0.0053333
        k(   84) = (   0.0000000  -0.1539601   0.0310826), wk =   0.0053333
        k(   85) = (   0.0000000  -0.1539601   0.0621652), wk =   0.0053333
        k(   86) = (   0.0000000  -0.2309401   0.0310826), wk =   0.0053333
        k(   87) = (   0.0000000  -0.2309401   0.0621652), wk =   0.0053333
        k(   88) = (   0.0000000  -0.3079201   0.0310826), wk =   0.0053333
        k(   89) = (   0.0000000  -0.3079201   0.0621652), wk =   0.0053333
        k(   90) = (   0.0000000  -0.3849002   0.0310826), wk =   0.0053333
        k(   91) = (   0.0000000  -0.3849002   0.0621652), wk =   0.0053333
        k(   92) = (   0.0000000  -0.4618802   0.0310826), wk =   0.0053333
        k(   93) = (   0.0000000  -0.4618802   0.0621652), wk =   0.0053333
        k(   94) = (   0.0000000  -0.5388603   0.0310826), wk =   0.0053333
        k(   95) = (   0.0000000  -0.5388603   0.0621652), wk =   0.0053333
        k(   96) = (  -0.0666667  -0.1924501   0.0310826), wk =   0.0106667
        k(   97) = (  -0.0666667  -0.1924501   0.0621652), wk =   0.0106667
        k(   98) = (  -0.0666667  -0.2694301   0.0310826), wk =   0.0106667
        k(   99) = (  -0.0666667  -0.2694301   0.0621652), wk =   0.0106667
        k(  100) = (  -0.0666667  -0.3464102   0.0310826), wk =   0.0106667
        k(  101) = (  -0.0666667  -0.3464102   0.0621652), wk =   0.0106667
        k(  102) = (  -0.0666667  -0.4233902   0.0310826), wk =   0.0106667
        k(  103) = (  -0.0666667  -0.4233902   0.0621652), wk =   0.0106667
        k(  104) = (  -0.0666667  -0.5003702   0.0310826), wk =   0.0106667
        k(  105) = (  -0.0666667  -0.5003702   0.0621652), wk =   0.0106667
        k(  106) = (  -0.1333333  -0.3079201   0.0310826), wk =   0.0106667
        k(  107) = (  -0.1333333  -0.3079201   0.0621652), wk =   0.0106667
        k(  108) = (  -0.1333333  -0.3849002   0.0310826), wk =   0.0106667
        k(  109) = (  -0.1333333  -0.3849002   0.0621652), wk =   0.0106667
        k(  110) = (  -0.1333333  -0.4618802   0.0310826), wk =   0.0106667
        k(  111) = (  -0.1333333  -0.4618802   0.0621652), wk =   0.0106667
        k(  112) = (  -0.1333333  -0.5388603   0.0310826), wk =   0.0106667
        k(  113) = (  -0.1333333  -0.5388603   0.0621652), wk =   0.0106667
        k(  114) = (  -0.2000000  -0.4233902   0.0310826), wk =   0.0106667
        k(  115) = (  -0.2000000  -0.4233902   0.0621652), wk =   0.0106667
        k(  116) = (  -0.2000000  -0.5003702   0.0310826), wk =   0.0106667
        k(  117) = (  -0.2000000  -0.5003702   0.0621652), wk =   0.0106667
        k(  118) = (  -0.2666667  -0.5388603   0.0310826), wk =   0.0106667
        k(  119) = (  -0.2666667  -0.5388603   0.0621652), wk =   0.0106667

                       cryst. coord.
        k(    1) = (   0.0000000   0.0000000   0.0000000), wk =   0.0008889
        k(    2) = (   0.0000000   0.0000000   0.2000000), wk =   0.0017778
        k(    3) = (   0.0000000   0.0000000   0.4000000), wk =   0.0017778
        k(    4) = (   0.0000000   0.0666667   0.0000000), wk =   0.0053333
        k(    5) = (   0.0000000   0.0666667   0.2000000), wk =   0.0053333
        k(    6) = (   0.0000000   0.0666667   0.4000000), wk =   0.0053333
        k(    7) = (   0.0000000   0.1333333   0.0000000), wk =   0.0053333
        k(    8) = (   0.0000000   0.1333333   0.2000000), wk =   0.0053333
        k(    9) = (   0.0000000   0.1333333   0.4000000), wk =   0.0053333
        k(   10) = (   0.0000000   0.2000000   0.0000000), wk =   0.0053333
        k(   11) = (   0.0000000   0.2000000   0.2000000), wk =   0.0053333
        k(   12) = (   0.0000000   0.2000000   0.4000000), wk =   0.0053333
        k(   13) = (   0.0000000   0.2666667   0.0000000), wk =   0.0053333
        k(   14) = (   0.0000000   0.2666667   0.2000000), wk =   0.0053333
        k(   15) = (   0.0000000   0.2666667   0.4000000), wk =   0.0053333
        k(   16) = (   0.0000000   0.3333333  -0.0000000), wk =   0.0053333
        k(   17) = (   0.0000000   0.3333333   0.2000000), wk =   0.0053333
        k(   18) = (   0.0000000   0.3333333   0.4000000), wk =   0.0053333
        k(   19) = (   0.0000000   0.4000000   0.0000000), wk =   0.0053333
        k(   20) = (   0.0000000   0.4000000   0.2000000), wk =   0.0053333
        k(   21) = (   0.0000000   0.4000000   0.4000000), wk =   0.0053333
        k(   22) = (   0.0000000   0.4666667  -0.0000000), wk =   0.0053333
        k(   23) = (   0.0000000   0.4666667   0.2000000), wk =   0.0053333
        k(   24) = (   0.0000000   0.4666667   0.4000000), wk =   0.0053333
        k(   25) = (   0.0666667   0.0666667   0.0000000), wk =   0.0053333
        k(   26) = (   0.0666667   0.0666667   0.2000000), wk =   0.0106667
        k(   27) = (   0.0666667   0.0666667   0.4000000), wk =   0.0106667
        k(   28) = (   0.0666667   0.1333333   0.0000000), wk =   0.0106667
        k(   29) = (   0.0666667   0.1333333   0.2000000), wk =   0.0106667
        k(   30) = (   0.0666667   0.1333333   0.4000000), wk =   0.0106667
        k(   31) = (   0.0666667   0.2000000  -0.0000000), wk =   0.0106667
        k(   32) = (   0.0666667   0.2000000   0.2000000), wk =   0.0106667
        k(   33) = (   0.0666667   0.2000000   0.4000000), wk =   0.0106667
        k(   34) = (   0.0666667   0.2666667   0.0000000), wk =   0.0106667
        k(   35) = (   0.0666667   0.2666667   0.2000000), wk =   0.0106667
        k(   36) = (   0.0666667   0.2666667   0.4000000), wk =   0.0106667
        k(   37) = (   0.0666667   0.3333333   0.0000000), wk =   0.0106667
        k(   38) = (   0.0666667   0.3333333   0.2000000), wk =   0.0106667
        k(   39) = (   0.0666667   0.3333333   0.4000000), wk =   0.0106667
        k(   40) = (   0.0666667   0.4000000   0.0000000), wk =   0.0106667
        k(   41) = (   0.0666667   0.4000000   0.2000000), wk =   0.0106667
        k(   42) = (   0.0666667   0.4000000   0.4000000), wk =   0.0106667
        k(   43) = (   0.0666667   0.4666667  -0.0000000), wk =   0.0053333
        k(   44) = (   0.0666667   0.4666667   0.2000000), wk =   0.0106667
        k(   45) = (   0.0666667   0.4666667   0.4000000), wk =   0.0106667
        k(   46) = (   0.1333333   0.1333333   0.0000000), wk =   0.0053333
        k(   47) = (   0.1333333   0.1333333   0.2000000), wk =   0.0106667
        k(   48) = (   0.1333333   0.1333333   0.4000000), wk =   0.0106667
        k(   49) = (   0.1333333   0.2000000   0.0000000), wk =   0.0106667
        k(   50) = (   0.1333333   0.2000000   0.2000000), wk =   0.0106667
        k(   51) = (   0.1333333   0.2000000   0.4000000), wk =   0.0106667
        k(   52) = (   0.1333333   0.2666667   0.0000000), wk =   0.0106667
        k(   53) = (   0.1333333   0.2666667   0.2000000), wk =   0.0106667
        k(   54) = (   0.1333333   0.2666667   0.4000000), wk =   0.0106667
        k(   55) = (   0.1333333   0.3333333   0.0000000), wk =   0.0106667
        k(   56) = (   0.1333333   0.3333333   0.2000000), wk =   0.0106667
        k(   57) = (   0.1333333   0.3333333   0.4000000), wk =   0.0106667
        k(   58) = (   0.1333333   0.4000000  -0.0000000), wk =   0.0106667
        k(   59) = (   0.1333333   0.4000000   0.2000000), wk =   0.0106667
        k(   60) = (   0.1333333   0.4000000   0.4000000), wk =   0.0106667
        k(   61) = (   0.2000000   0.2000000   0.0000000), wk =   0.0053333
        k(   62) = (   0.2000000   0.2000000   0.2000000), wk =   0.0106667
        k(   63) = (   0.2000000   0.2000000   0.4000000), wk =   0.0106667
        k(   64) = (   0.2000000   0.2666667   0.0000000), wk =   0.0106667
        k(   65) = (   0.2000000   0.2666667   0.2000000), wk =   0.0106667
        k(   66) = (   0.2000000   0.2666667   0.4000000), wk =   0.0106667
        k(   67) = (   0.2000000   0.3333333  -0.0000000), wk =   0.0106667
        k(   68) = (   0.2000000   0.3333333   0.2000000), wk =   0.0106667
        k(   69) = (   0.2000000   0.3333333   0.4000000), wk =   0.0106667
        k(   70) = (   0.2000000   0.4000000  -0.0000000), wk =   0.0053333
        k(   71) = (   0.2000000   0.4000000   0.2000000), wk =   0.0106667
        k(   72) = (   0.2000000   0.4000000   0.4000000), wk =   0.0106667
        k(   73) = (   0.2666667   0.2666667   0.0000000), wk =   0.0053333
        k(   74) = (   0.2666667   0.2666667   0.2000000), wk =   0.0106667
        k(   75) = (   0.2666667   0.2666667   0.4000000), wk =   0.0106667
        k(   76) = (   0.2666667   0.3333333   0.0000000), wk =   0.0106667
        k(   77) = (   0.2666667   0.3333333   0.2000000), wk =   0.0106667
        k(   78) = (   0.2666667   0.3333333   0.4000000), wk =   0.0106667
        k(   79) = (   0.3333333   0.3333333   0.0000000), wk =   0.0017778
        k(   80) = (   0.3333333   0.3333333   0.2000000), wk =   0.0035556
        k(   81) = (   0.3333333   0.3333333   0.4000000), wk =   0.0035556
        k(   82) = (   0.0000000  -0.0666667   0.2000000), wk =   0.0053333
        k(   83) = (   0.0000000  -0.0666667   0.4000000), wk =   0.0053333
        k(   84) = (   0.0000000  -0.1333333   0.2000000), wk =   0.0053333
        k(   85) = (   0.0000000  -0.1333333   0.4000000), wk =   0.0053333
        k(   86) = (   0.0000000  -0.2000000   0.2000000), wk =   0.0053333
        k(   87) = (   0.0000000  -0.2000000   0.4000000), wk =   0.0053333
        k(   88) = (   0.0000000  -0.2666667   0.2000000), wk =   0.0053333
        k(   89) = (   0.0000000  -0.2666667   0.4000000), wk =   0.0053333
        k(   90) = (   0.0000000  -0.3333333   0.2000000), wk =   0.0053333
        k(   91) = (   0.0000000  -0.3333333   0.4000000), wk =   0.0053333
        k(   92) = (   0.0000000  -0.4000000   0.2000000), wk =   0.0053333
        k(   93) = (   0.0000000  -0.4000000   0.4000000), wk =   0.0053333
        k(   94) = (   0.0000000  -0.4666667   0.2000000), wk =   0.0053333
        k(   95) = (   0.0000000  -0.4666667   0.4000000), wk =   0.0053333
        k(   96) = (  -0.0666667  -0.1333333   0.2000000), wk =   0.0106667
        k(   97) = (  -0.0666667  -0.1333333   0.4000000), wk =   0.0106667
        k(   98) = (  -0.0666667  -0.2000000   0.2000000), wk =   0.0106667
        k(   99) = (  -0.0666667  -0.2000000   0.4000000), wk =   0.0106667
        k(  100) = (  -0.0666667  -0.2666667   0.2000000), wk =   0.0106667
        k(  101) = (  -0.0666667  -0.2666667   0.4000000), wk =   0.0106667
        k(  102) = (  -0.0666667  -0.3333333   0.2000000), wk =   0.0106667
        k(  103) = (  -0.0666667  -0.3333333   0.4000000), wk =   0.0106667
        k(  104) = (  -0.0666667  -0.4000000   0.2000000), wk =   0.0106667
        k(  105) = (  -0.0666667  -0.4000000   0.4000000), wk =   0.0106667
        k(  106) = (  -0.1333333  -0.2000000   0.2000000), wk =   0.0106667
        k(  107) = (  -0.1333333  -0.2000000   0.4000000), wk =   0.0106667
        k(  108) = (  -0.1333333  -0.2666667   0.2000000), wk =   0.0106667
        k(  109) = (  -0.1333333  -0.2666667   0.4000000), wk =   0.0106667
        k(  110) = (  -0.1333333  -0.3333333   0.2000000), wk =   0.0106667
        k(  111) = (  -0.1333333  -0.3333333   0.4000000), wk =   0.0106667
        k(  112) = (  -0.1333333  -0.4000000   0.2000000), wk =   0.0106667
        k(  113) = (  -0.1333333  -0.4000000   0.4000000), wk =   0.0106667
        k(  114) = (  -0.2000000  -0.2666667   0.2000000), wk =   0.0106667
        k(  115) = (  -0.2000000  -0.2666667   0.4000000), wk =   0.0106667
        k(  116) = (  -0.2000000  -0.3333333   0.2000000), wk =   0.0106667
        k(  117) = (  -0.2000000  -0.3333333   0.4000000), wk =   0.0106667
        k(  118) = (  -0.2666667  -0.3333333   0.2000000), wk =   0.0106667
        k(  119) = (  -0.2666667  -0.3333333   0.4000000), wk =   0.0106667

     Dense  grid:   633693 G-vectors     FFT dimensions: (  64,  64, 400)

     Estimated max dynamical RAM per process >    1124.80MB

     Estimated total allocated dynamical RAM >   53990.31MB

     Initial potential from superposition of free atoms

     starting charge  173.98261, renormalised to  174.00000
     Starting wfc are  216 randomized atomic wfcs

     total cpu time spent up to now is      149.2 secs

     Self-consistent Calculation

     iteration #  1     ecut=   150.00 Ry     beta=0.70
     Davidson diagonalization with overlap
     ethr =  1.00E-02,  avg # of iterations =  2.0

     Threshold (ethr) on eigenvalues was too large:
     Diagonalizing with lowered threshold

     Davidson diagonalization with overlap
     ethr =  8.77E-05,  avg # of iterations =  3.0

     total cpu time spent up to now is      970.4 secs

     total energy              =   -1833.15856601 Ry
     Harris-Foulkes estimate   =   -1833.22707331 Ry
     estimated scf accuracy    <       0.15849202 Ry

     iteration #  2     ecut=   150.00 Ry     beta=0.70
     Davidson diagonalization with overlap
     ethr =  9.11E-05,  avg # of iterations =  2.0

     total cpu time spent up to now is     1406.3 secs

     total energy              =   -1833.17025392 Ry
     Harris-Foulkes estimate   =   -1833.18815840 Ry
     estimated scf accuracy    <       0.02875076 Ry

     iteration #  3     ecut=   150.00 Ry     beta=0.70
     Davidson diagonalization with overlap
     ethr =  1.65E-05,  avg # of iterations =  3.0

     total cpu time spent up to now is     1939.7 secs

     total energy              =   -1833.16856519 Ry
     Harris-Foulkes estimate   =   -1833.19247496 Ry
     estimated scf accuracy    <       0.06273610 Ry

     iteration #  4     ecut=   150.00 Ry     beta=0.70
     Davidson diagonalization with overlap
     ethr =  1.65E-05,  avg # of iterations =  3.0

     total cpu time spent up to now is     2359.1 secs

     total energy              =   -1833.18092928 Ry
     Harris-Foulkes estimate   =   -1833.18291239 Ry
     estimated scf accuracy    <       0.00592728 Ry

     iteration #  5     ecut=   150.00 Ry     beta=0.70
     Davidson diagonalization with overlap
     ethr =  3.41E-06,  avg # of iterations =  3.0

     total cpu time spent up to now is     2757.3 secs

     total energy              =   -1833.18166082 Ry
     Harris-Foulkes estimate   =   -1833.18182462 Ry
     estimated scf accuracy    <       0.00029789 Ry

     iteration #  6     ecut=   150.00 Ry     beta=0.70
     Davidson diagonalization with overlap
     ethr =  1.71E-07,  avg # of iterations =  5.2

     total cpu time spent up to now is     3248.7 secs

     total energy              =   -1833.18158093 Ry
     Harris-Foulkes estimate   =   -1833.18204789 Ry
     estimated scf accuracy    <       0.00269163 Ry

     iteration #  7     ecut=   150.00 Ry     beta=0.70
     Davidson diagonalization with overlap
     ethr =  1.71E-07,  avg # of iterations =  4.8

     total cpu time spent up to now is     3699.0 secs

     total energy              =   -1833.18180924 Ry
     Harris-Foulkes estimate   =   -1833.18180992 Ry
     estimated scf accuracy    <       0.00000369 Ry

     iteration #  8     ecut=   150.00 Ry     beta=0.70
     Davidson diagonalization with overlap
     ethr =  2.12E-09,  avg # of iterations =  4.4

     total cpu time spent up to now is     4207.5 secs

     total energy              =   -1833.18180997 Ry
     Harris-Foulkes estimate   =   -1833.18181035 Ry
     estimated scf accuracy    <       0.00000075 Ry

     iteration #  9     ecut=   150.00 Ry     beta=0.70
     Davidson diagonalization with overlap
     ethr =  4.32E-10,  avg # of iterations =  4.3

     total cpu time spent up to now is     4678.8 secs

     total energy              =   -1833.18181012 Ry
     Harris-Foulkes estimate   =   -1833.18181026 Ry
     estimated scf accuracy    <       0.00000041 Ry

     iteration # 10     ecut=   150.00 Ry     beta=0.70
     Davidson diagonalization with overlap
     ethr =  2.34E-10,  avg # of iterations =  3.5

     total cpu time spent up to now is     5096.5 secs

     total energy              =   -1833.18181018 Ry
     Harris-Foulkes estimate   =   -1833.18181021 Ry
     estimated scf accuracy    <       0.00000009 Ry

     iteration # 11     ecut=   150.00 Ry     beta=0.70
     Davidson diagonalization with overlap
     ethr =  5.26E-11,  avg # of iterations =  4.4

     total cpu time spent up to now is     5530.8 secs

     total energy              =   -1833.18181019 Ry
     Harris-Foulkes estimate   =   -1833.18181021 Ry
     estimated scf accuracy    <       0.00000008 Ry

     iteration # 12     ecut=   150.00 Ry     beta=0.70
     Davidson diagonalization with overlap
     ethr =  4.77E-11,  avg # of iterations =  4.2

     total cpu time spent up to now is     5955.0 secs

     total energy              =   -1833.18181020 Ry
     Harris-Foulkes estimate   =   -1833.18181021 Ry
     estimated scf accuracy    <       0.00000007 Ry

     iteration # 13     ecut=   150.00 Ry     beta=0.70
     Davidson diagonalization with overlap
     ethr =  4.19E-11,  avg # of iterations =  4.0

     total cpu time spent up to now is     6357.4 secs

     total energy              =   -1833.18181020 Ry
     Harris-Foulkes estimate   =   -1833.18181020 Ry
     estimated scf accuracy    <          7.4E-10 Ry

     iteration # 14     ecut=   150.00 Ry     beta=0.70
     Davidson diagonalization with overlap
     ethr =  4.24E-13,  avg # of iterations =  4.2

     total cpu time spent up to now is     6848.7 secs

     End of self-consistent calculation

          k = 0.0000 0.0000 0.0000 ( 78925 PWs)   bands (ev):

   -29.7816 -29.7816 -29.7812 -29.7812 -29.7812 -29.7812 -29.7794 -29.7794
   -29.7789 -29.7789 -29.7786 -29.7786 -29.7310 -29.7310 -29.7306 -29.7306
   -29.7306 -29.7306 -29.7299 -29.7299 -29.7295 -29.7295 -29.7292 -29.7292
   -28.3306 -28.3306 -28.3301 -28.3301 -28.3301 -28.3301 -28.3281 -28.3281
   -28.3276 -28.3276 -28.3273 -28.3273 -28.2865 -28.2865 -28.2860 -28.2860
   -28.2860 -28.2860 -28.2849 -28.2849 -28.2845 -28.2845 -28.2842 -28.2842
   -28.2647 -28.2647 -28.2643 -28.2643 -28.2643 -28.2643 -28.2636 -28.2636
   -28.2632 -28.2632 -28.2629 -28.2629  -7.4575  -7.4575  -7.4573  -7.4573
    -7.4571  -7.4571  -7.4237  -7.4237  -7.4235  -7.4235  -7.4232  -7.4232
    -7.4137  -7.4137  -7.4135  -7.4135  -7.4132  -7.4132  -7.4042  -7.4042
    -7.4040  -7.4040  -7.4037  -7.4037  -6.9977  -6.9977  -6.9975  -6.9975
    -6.9972  -6.9972  -6.9919  -6.9919  -6.9917  -6.9917  -6.9915  -6.9915
    -6.9763  -6.9763  -6.9761  -6.9761  -6.9758  -6.9758  -6.9447  -6.9447
    -6.9445  -6.9445  -6.9443  -6.9443  -6.8812  -6.8812  -6.8810  -6.8810
    -6.8808  -6.8808  -6.8640  -6.8640  -6.8638  -6.8638  -6.8636  -6.8636
    -4.7577  -4.7577  -4.6755  -4.6755  -4.6752  -4.6752  -4.4943  -4.4943
    -4.4936  -4.4936  -4.3932  -4.3932   1.0419   1.0419   1.3132   1.3132
     1.3141   1.3141   3.2936   3.2936   3.2951   3.2951   4.0629   4.0629
     5.9017   5.9017   6.3240   6.3240   6.3247   6.3247   6.3941   6.3941
     6.3944   6.3944   6.4126   6.4126   6.6459   6.6459   6.9152   6.9152
     6.9161   6.9161   6.9951   6.9951   7.0765   7.0765   7.1663   7.1663
     7.1668   7.1668   7.2969   7.2969   7.2983   7.2983

     occupation numbers 
     1.0000   1.0000   1.0000   1.0000   1.0000   1.0000   1.0000   1.0000
     1.0000   1.0000   1.0000   1.0000   1.0000   1.0000   1.0000   1.0000
     1.0000   1.0000   1.0000   1.0000   1.0000   1.0000   1.0000   1.0000
     1.0000   1.0000   1.0000   1.0000   1.0000   1.0000   1.0000   1.0000
     1.0000   1.0000   1.0000   1.0000   1.0000   1.0000   1.0000   1.0000
     1.0000   1.0000   1.0000   1.0000   1.0000   1.0000   1.0000   1.0000
     1.0000   1.0000   1.0000   1.0000   1.0000   1.0000   1.0000   1.0000
     1.0000   1.0000   1.0000   1.0000   1.0000   1.0000   1.0000   1.0000
     1.0000   1.0000   1.0000   1.0000   1.0000   1.0000   1.0000   1.0000
     1.0000   1.0000   1.0000   1.0000   1.0000   1.0000   1.0000   1.0000
     1.0000   1.0000   1.0000   1.0000   1.0000   1.0000   1.0000   1.0000
     1.0000   1.0000   1.0000   1.0000   1.0000   1.0000   1.0000   1.0000
     1.0000   1.0000   1.0000   1.0000   1.0000   1.0000   1.0000   1.0000
     1.0000   1.0000   1.0000   1.0000   1.0000   1.0000   1.0000   1.0000
     1.0000   1.0000   1.0000   1.0000   1.0000   1.0000   1.0000   1.0000
     1.0000   1.0000   1.0000   1.0000   1.0000   1.0000   1.0000   1.0000
     1.0000   1.0000   1.0000   1.0000   1.0000   1.0000   1.0000   1.0000
     1.0000   1.0000   1.0000   1.0000   1.0000   1.0000   1.0000   1.0000
     1.0000   1.0000   1.0000   1.0000   1.0000   1.0000   1.0000   1.0000
     1.0000   1.0000   1.0000   1.0000   1.0000   1.0000   1.0000   1.0000
     1.0000   1.0000   1.0000   1.0000   1.0000   1.0000   1.0000   1.0000
     1.0000   1.0000   1.0000   1.0000   1.0000   1.0000

          k = 0.0000 0.0000 0.0311 ( 79087 PWs)   bands (ev):

   -29.7816 -29.7816 -29.7812 -29.7812 -29.7812 -29.7812 -29.7794 -29.7794
   -29.7789 -29.7789 -29.7786 -29.7786 -29.7310 -29.7310 -29.7306 -29.7306
   -29.7306 -29.7306 -29.7299 -29.7299 -29.7295 -29.7295 -29.7292 -29.7292
   -28.3306 -28.3306 -28.3301 -28.3301 -28.3301 -28.3301 -28.3281 -28.3281
   -28.3276 -28.3276 -28.3273 -28.3273 -28.2865 -28.2865 -28.2860 -28.2860
   -28.2860 -28.2860 -28.2849 -28.2849 -28.2845 -28.2845 -28.2842 -28.2842
   -28.2647 -28.2647 -28.2643 -28.2643 -28.2643 -28.2643 -28.2636 -28.2636
   -28.2632 -28.2632 -28.2629 -28.2629  -7.4575  -7.4575  -7.4573  -7.4573
    -7.4571  -7.4571  -7.4237  -7.4237  -7.4235  -7.4235  -7.4232  -7.4232
    -7.4137  -7.4137  -7.4135  -7.4135  -7.4132  -7.4132  -7.4042  -7.4042
    -7.4040  -7.4040  -7.4037  -7.4037  -6.9977  -6.9977  -6.9975  -6.9975
    -6.9972  -6.9972  -6.9919  -6.9919  -6.9917  -6.9917  -6.9915  -6.9915
    -6.9763  -6.9763  -6.9761  -6.9761  -6.9758  -6.9758  -6.9447  -6.9447
    -6.9445  -6.9445  -6.9443  -6.9443  -6.8812  -6.8812  -6.8810  -6.8810
    -6.8808  -6.8808  -6.8640  -6.8640  -6.8638  -6.8638  -6.8636  -6.8636
    -4.7542  -4.7542  -4.7037  -4.7037  -4.6426  -4.6426  -4.5304  -4.5304
    -4.4607  -4.4607  -4.3978  -4.3978   1.0553   1.0553   1.2317   1.2317
     1.3858   1.3858   3.1501   3.1501   3.4788   3.4788   4.0090   4.0090
     5.9505   5.9505   6.2940   6.2940   6.3235   6.3235   6.3731   6.3731
     6.4070   6.4070   6.4223   6.4223   6.6677   6.6677   6.9055   6.9057
     6.9300   6.9303   6.9863   6.9867   7.0580   7.0580   7.0856   7.0859
     7.1490   7.1495   7.1787   7.1789   7.5460   7.5460

     occupation numbers 
     1.0000   1.0000   1.0000   1.0000   1.0000   1.0000   1.0000   1.0000
     1.0000   1.0000   1.0000   1.0000   1.0000   1.0000   1.0000   1.0000
     1.0000   1.0000   1.0000   1.0000   1.0000   1.0000   1.0000   1.0000
     1.0000   1.0000   1.0000   1.0000   1.0000   1.0000   1.0000   1.0000
     1.0000   1.0000   1.0000   1.0000   1.0000   1.0000   1.0000   1.0000
     1.0000   1.0000   1.0000   1.0000   1.0000   1.0000   1.0000   1.0000
     1.0000   1.0000   1.0000   1.0000   1.0000   1.0000   1.0000   1.0000
     1.0000   1.0000   1.0000   1.0000   1.0000   1.0000   1.0000   1.0000
     1.0000   1.0000   1.0000   1.0000   1.0000   1.0000   1.0000   1.0000
     1.0000   1.0000   1.0000   1.0000   1.0000   1.0000   1.0000   1.0000
     1.0000   1.0000   1.0000   1.0000   1.0000   1.0000   1.0000   1.0000
     1.0000   1.0000   1.0000   1.0000   1.0000   1.0000   1.0000   1.0000
     1.0000   1.0000   1.0000   1.0000   1.0000   1.0000   1.0000   1.0000
     1.0000   1.0000   1.0000   1.0000   1.0000   1.0000   1.0000   1.0000
     1.0000   1.0000   1.0000   1.0000   1.0000   1.0000   1.0000   1.0000
     1.0000   1.0000   1.0000   1.0000   1.0000   1.0000   1.0000   1.0000
     1.0000   1.0000   1.0000   1.0000   1.0000   1.0000   1.0000   1.0000
     1.0000   1.0000   1.0000   1.0000   1.0000   1.0000   1.0000   1.0000
     1.0000   1.0000   1.0000   1.0000   1.0000   1.0000   1.0000   1.0000
     1.0000   1.0000   1.0000   1.0000   1.0000   1.0000   1.0000   1.0000
     1.0000   1.0000   1.0000   1.0000   1.0000   1.0000   1.0000   1.0000
     1.0000   1.0000   1.0000   1.0000   1.0000   1.0000

          k = 0.0000 0.0000 0.0622 ( 79046 PWs)   bands (ev):

   -29.7816 -29.7816 -29.7812 -29.7812 -29.7812 -29.7812 -29.7794 -29.7794
   -29.7789 -29.7789 -29.7786 -29.7786 -29.7310 -29.7310 -29.7306 -29.7306
   -29.7306 -29.7306 -29.7299 -29.7299 -29.7295 -29.7295 -29.7292 -29.7292
   -28.3306 -28.3306 -28.3301 -28.3301 -28.3301 -28.3301 -28.3281 -28.3281
   -28.3276 -28.3276 -28.3273 -28.3273 -28.2865 -28.2865 -28.2860 -28.2860
   -28.2860 -28.2860 -28.2849 -28.2849 -28.2845 -28.2845 -28.2842 -28.2842
   -28.2647 -28.2647 -28.2643 -28.2643 -28.2643 -28.2643 -28.2636 -28.2636
   -28.2632 -28.2632 -28.2629 -28.2629  -7.4575  -7.4575  -7.4573  -7.4573
    -7.4571  -7.4571  -7.4237  -7.4237  -7.4235  -7.4235  -7.4232  -7.4232
    -7.4137  -7.4137  -7.4135  -7.4135  -7.4132  -7.4132  -7.4042  -7.4042
    -7.4040  -7.4040  -7.4037  -7.4037  -6.9977  -6.9977  -6.9975  -6.9975
    -6.9972  -6.9972  -6.9919  -6.9919  -6.9917  -6.9917  -6.9915  -6.9915
    -6.9763  -6.9763  -6.9761  -6.9761  -6.9758  -6.9758  -6.9447  -6.9447
    -6.9445  -6.9445  -6.9443  -6.9443  -6.8812  -6.8812  -6.8810  -6.8810
    -6.8808  -6.8808  -6.8640  -6.8640  -6.8638  -6.8638  -6.8636  -6.8636
    -4.7438  -4.7438  -4.7268  -4.7268  -4.6070  -4.6070  -4.5681  -4.5681
    -4.4326  -4.4326  -4.4112  -4.4112   1.0941   1.0941   1.1551   1.1551
     1.4292   1.4292   3.0696   3.0696   3.6791   3.6791   3.8676   3.8676
     6.0697   6.0697   6.2008   6.2008   6.3207   6.3207   6.3793   6.3793
     6.3936   6.3936   6.4367   6.4367   6.7365   6.7365   6.8644   6.8644
     6.9004   6.9005   6.9479   6.9484   6.9679   6.9683   7.1056   7.1061
     7.1281   7.1286   7.1851   7.1851   7.7400   7.7400

     occupation numbers 
     1.0000   1.0000   1.0000   1.0000   1.0000   1.0000   1.0000   1.0000
     1.0000   1.0000   1.0000   1.0000   1.0000   1.0000   1.0000   1.0000
     1.0000   1.0000   1.0000   1.0000   1.0000   1.0000   1.0000   1.0000
     1.0000   1.0000   1.0000   1.0000   1.0000   1.0000   1.0000   1.0000
     1.0000   1.0000   1.0000   1.0000   1.0000   1.0000   1.0000   1.0000
     1.0000   1.0000   1.0000   1.0000   1.0000   1.0000   1.0000   1.0000
     1.0000   1.0000   1.0000   1.0000   1.0000   1.0000   1.0000   1.0000
     1.0000   1.0000   1.0000   1.0000   1.0000   1.0000   1.0000   1.0000
     1.0000   1.0000   1.0000   1.0000   1.0000   1.0000   1.0000   1.0000
     1.0000   1.0000   1.0000   1.0000   1.0000   1.0000   1.0000   1.0000
     1.0000   1.0000   1.0000   1.0000   1.0000   1.0000   1.0000   1.0000
     1.0000   1.0000   1.0000   1.0000   1.0000   1.0000   1.0000   1.0000
     1.0000   1.0000   1.0000   1.0000   1.0000   1.0000   1.0000   1.0000
     1.0000   1.0000   1.0000   1.0000   1.0000   1.0000   1.0000   1.0000
     1.0000   1.0000   1.0000   1.0000   1.0000   1.0000   1.0000   1.0000
     1.0000   1.0000   1.0000   1.0000   1.0000   1.0000   1.0000   1.0000
     1.0000   1.0000   1.0000   1.0000   1.0000   1.0000   1.0000   1.0000
     1.0000   1.0000   1.0000   1.0000   1.0000   1.0000   1.0000   1.0000
     1.0000   1.0000   1.0000   1.0000   1.0000   1.0000   1.0000   1.0000
     1.0000   1.0000   1.0000   1.0000   1.0000   1.0000   1.0000   1.0000
     1.0000   1.0000   1.0000   1.0000   1.0000   1.0000   1.0000   1.0000
     1.0000   1.0000   1.0000   1.0000   1.0000   1.0000

          k = 0.0000 0.0770-0.0000 ( 79036 PWs)   bands (ev):

   -29.7816 -29.7816 -29.7811 -29.7811 -29.7811 -29.7811 -29.7793 -29.7793
   -29.7788 -29.7788 -29.7786 -29.7786 -29.7310 -29.7310 -29.7306 -29.7306
   -29.7306 -29.7306 -29.7299 -29.7299 -29.7295 -29.7295 -29.7292 -29.7292
   -28.3305 -28.3305 -28.3300 -28.3300 -28.3300 -28.3300 -28.3280 -28.3280
   -28.3275 -28.3275 -28.3273 -28.3273 -28.2865 -28.2865 -28.2860 -28.2860
   -28.2860 -28.2860 -28.2850 -28.2850 -28.2845 -28.2845 -28.2842 -28.2842
   -28.2647 -28.2646 -28.2643 -28.2642 -28.2642 -28.2642 -28.2636 -28.2635
   -28.2632 -28.2631 -28.2629 -28.2628  -7.4579  -7.4577  -7.4576  -7.4574
    -7.4574  -7.4572  -7.4241  -7.4241  -7.4239  -7.4239  -7.4237  -7.4237
    -7.4142  -7.4142  -7.4140  -7.4139  -7.4138  -7.4137  -7.4046  -7.4045
    -7.4044  -7.4043  -7.4041  -7.4040  -6.9992  -6.9991  -6.9990  -6.9989
    -6.9988  -6.9987  -6.9931  -6.9929  -6.9927  -6.9926  -6.9925  -6.9922
    -6.9764  -6.9762  -6.9761  -6.9760  -6.9759  -6.9757  -6.9446  -6.9445
    -6.9444  -6.9443  -6.9441  -6.9441  -6.8829  -6.8829  -6.8828  -6.8828
    -6.8825  -6.8825  -6.8625  -6.8624  -6.8623  -6.8622  -6.8621  -6.8620
    -4.7153  -4.7152  -4.6336  -4.6335  -4.6333  -4.6332  -4.4536  -4.4535
    -4.4529  -4.4529  -4.3533  -4.3532   1.0643   1.0643   1.3259   1.3260
     1.3269   1.3270   3.3025   3.3031   3.3045   3.3055   4.0166   4.0168
     5.7194   5.7210   5.9946   5.9977   6.0010   6.0038   6.2191   6.2207
     6.2288   6.2333   6.2971   6.2982   6.4720   6.4796   6.6826   6.6835
     6.7029   6.7063   6.8323   6.8340   6.8380   6.8481   6.8584   6.8688
     6.9044   6.9079   7.3814   7.3931   7.3951   7.4003

     occupation numbers 
     1.0000   1.0000   1.0000   1.0000   1.0000   1.0000   1.0000   1.0000
     1.0000   1.0000   1.0000   1.0000   1.0000   1.0000   1.0000   1.0000
     1.0000   1.0000   1.0000   1.0000   1.0000   1.0000   1.0000   1.0000
     1.0000   1.0000   1.0000   1.0000   1.0000   1.0000   1.0000   1.0000
     1.0000   1.0000   1.0000   1.0000   1.0000   1.0000   1.0000   1.0000
     1.0000   1.0000   1.0000   1.0000   1.0000   1.0000   1.0000   1.0000
     1.0000   1.0000   1.0000   1.0000   1.0000   1.0000   1.0000   1.0000
     1.0000   1.0000   1.0000   1.0000   1.0000   1.0000   1.0000   1.0000
     1.0000   1.0000   1.0000   1.0000   1.0000   1.0000   1.0000   1.0000
     1.0000   1.0000   1.0000   1.0000   1.0000   1.0000   1.0000   1.0000
     1.0000   1.0000   1.0000   1.0000   1.0000   1.0000   1.0000   1.0000
     1.0000   1.0000   1.0000   1.0000   1.0000   1.0000   1.0000   1.0000
     1.0000   1.0000   1.0000   1.0000   1.0000   1.0000   1.0000   1.0000
     1.0000   1.0000   1.0000   1.0000   1.0000   1.0000   1.0000   1.0000
     1.0000   1.0000   1.0000   1.0000   1.0000   1.0000   1.0000   1.0000
     1.0000   1.0000   1.0000   1.0000   1.0000   1.0000   1.0000   1.0000
     1.0000   1.0000   1.0000   1.0000   1.0000   1.0000   1.0000   1.0000
     1.0000   1.0000   1.0000   1.0000   1.0000   1.0000   1.0000   1.0000
     1.0000   1.0000   1.0000   1.0000   1.0000   1.0000   1.0000   1.0000
     1.0000   1.0000   1.0000   1.0000   1.0000   1.0000   1.0000   1.0000
     1.0000   1.0000   1.0000   1.0000   1.0000   1.0000   1.0000   1.0000
     1.0000   1.0000   1.0000   1.0000   1.0000   1.0000

          k = 0.0000 0.0770 0.0311 ( 79021 PWs)   bands (ev):

   -29.7816 -29.7816 -29.7811 -29.7811 -29.7811 -29.7811 -29.7793 -29.7793
   -29.7788 -29.7788 -29.7786 -29.7786 -29.7310 -29.7310 -29.7306 -29.7306
   -29.7306 -29.7306 -29.7299 -29.7299 -29.7295 -29.7295 -29.7292 -29.7292
   -28.3305 -28.3305 -28.3300 -28.3300 -28.3300 -28.3300 -28.3280 -28.3280
   -28.3275 -28.3275 -28.3273 -28.3273 -28.2865 -28.2865 -28.2860 -28.2860
   -28.2860 -28.2860 -28.2850 -28.2850 -28.2845 -28.2845 -28.2842 -28.2842
   -28.2647 -28.2646 -28.2643 -28.2642 -28.2642 -28.2642 -28.2636 -28.2635
   -28.2632 -28.2631 -28.2629 -28.2628  -7.4579  -7.4577  -7.4576  -7.4574
    -7.4574  -7.4572  -7.4241  -7.4241  -7.4239  -7.4239  -7.4237  -7.4237
    -7.4142  -7.4142  -7.4140  -7.4139  -7.4138  -7.4137  -7.4046  -7.4045
    -7.4044  -7.4043  -7.4041  -7.4040  -6.9992  -6.9991  -6.9990  -6.9989
    -6.9988  -6.9987  -6.9931  -6.9929  -6.9927  -6.9926  -6.9925  -6.9922
    -6.9764  -6.9762  -6.9761  -6.9760  -6.9759  -6.9757  -6.9446  -6.9445
    -6.9444  -6.9443  -6.9441  -6.9441  -6.8829  -6.8829  -6.8828  -6.8828
    -6.8825  -6.8825  -6.8625  -6.8624  -6.8623  -6.8622  -6.8621  -6.8620
    -4.7118  -4.7117  -4.6617  -4.6616  -4.6009  -4.6008  -4.4895  -4.4894
    -4.4203  -4.4202  -4.3578  -4.3578   1.0773   1.0773   1.2475   1.2476
     1.3953   1.3954   3.1671   3.1677   3.4774   3.4793   3.9672   3.9682
     5.7467   5.7525   5.9604   5.9703   6.0136   6.0194   6.2169   6.2250
     6.2283   6.2354   6.2822   6.2957   6.4933   6.5177   6.6784   6.6800
     6.7064   6.7139   6.7937   6.8054   6.8077   6.8117   6.8861   6.8908
     6.9358   6.9413   7.2107   7.2180   7.5666   7.5686

     occupation numbers 
     1.0000   1.0000   1.0000   1.0000   1.0000   1.0000   1.0000   1.0000
     1.0000   1.0000   1.0000   1.0000   1.0000   1.0000   1.0000   1.0000
     1.0000   1.0000   1.0000   1.0000   1.0000   1.0000   1.0000   1.0000
     1.0000   1.0000   1.0000   1.0000   1.0000   1.0000   1.0000   1.0000
     1.0000   1.0000   1.0000   1.0000   1.0000   1.0000   1.0000   1.0000
     1.0000   1.0000   1.0000   1.0000   1.0000   1.0000   1.0000   1.0000
     1.0000   1.0000   1.0000   1.0000   1.0000   1.0000   1.0000   1.0000
     1.0000   1.0000   1.0000   1.0000   1.0000   1.0000   1.0000   1.0000
     1.0000   1.0000   1.0000   1.0000   1.0000   1.0000   1.0000   1.0000
     1.0000   1.0000   1.0000   1.0000   1.0000   1.0000   1.0000   1.0000
     1.0000   1.0000   1.0000   1.0000   1.0000   1.0000   1.0000   1.0000
     1.0000   1.0000   1.0000   1.0000   1.0000   1.0000   1.0000   1.0000
     1.0000   1.0000   1.0000   1.0000   1.0000   1.0000   1.0000   1.0000
     1.0000   1.0000   1.0000   1.0000   1.0000   1.0000   1.0000   1.0000
     1.0000   1.0000   1.0000   1.0000   1.0000   1.0000   1.0000   1.0000
     1.0000   1.0000   1.0000   1.0000   1.0000   1.0000   1.0000   1.0000
     1.0000   1.0000   1.0000   1.0000   1.0000   1.0000   1.0000   1.0000
     1.0000   1.0000   1.0000   1.0000   1.0000   1.0000   1.0000   1.0000
     1.0000   1.0000   1.0000   1.0000   1.0000   1.0000   1.0000   1.0000
     1.0000   1.0000   1.0000   1.0000   1.0000   1.0000   1.0000   1.0000
     1.0000   1.0000   1.0000   1.0000   1.0000   1.0000   1.0000   1.0000
     1.0000   1.0000   1.0000   1.0000   1.0000   1.0000

          k = 0.0000 0.0770 0.0622 ( 79002 PWs)   bands (ev):

   -29.7816 -29.7816 -29.7811 -29.7811 -29.7811 -29.7811 -29.7793 -29.7793
   -29.7788 -29.7788 -29.7786 -29.7786 -29.7310 -29.7310 -29.7306 -29.7306
   -29.7306 -29.7306 -29.7299 -29.7299 -29.7295 -29.7295 -29.7292 -29.7292
   -28.3305 -28.3305 -28.3300 -28.3300 -28.3300 -28.3300 -28.3280 -28.3280
   -28.3275 -28.3275 -28.3273 -28.3273 -28.2865 -28.2865 -28.2860 -28.2860
   -28.2860 -28.2860 -28.2850 -28.2850 -28.2845 -28.2845 -28.2842 -28.2842
   -28.2647 -28.2646 -28.2643 -28.2642 -28.2642 -28.2642 -28.2636 -28.2635
   -28.2632 -28.2631 -28.2629 -28.2628  -7.4579  -7.4577  -7.4576  -7.4574
    -7.4574  -7.4572  -7.4241  -7.4241  -7.4239  -7.4239  -7.4237  -7.4237
    -7.4142  -7.4142  -7.4140  -7.4139  -7.4138  -7.4137  -7.4046  -7.4045
    -7.4044  -7.4043  -7.4041  -7.4040  -6.9992  -6.9991  -6.9990  -6.9989
    -6.9988  -6.9987  -6.9931  -6.9929  -6.9927  -6.9926  -6.9925  -6.9922
    -6.9764  -6.9762  -6.9761  -6.9760  -6.9759  -6.9757  -6.9446  -6.9445
    -6.9444  -6.9443  -6.9441  -6.9441  -6.8829  -6.8829  -6.8828  -6.8828
    -6.8825  -6.8825  -6.8625  -6.8624  -6.8623  -6.8622  -6.8621  -6.8620
    -4.7014  -4.7014  -4.6846  -4.6845  -4.5656  -4.5653  -4.5270  -4.5267
    -4.3924  -4.3923  -4.3711  -4.3711   1.1150   1.1151   1.1736   1.1738
     1.4364   1.4365   3.0918   3.0919   3.6646   3.6667   3.8378   3.8393
     5.8180   5.8254   5.9012   5.9109   6.0184   6.0254   6.2239   6.2318
     6.2374   6.2374   6.2559   6.2725   6.5677   6.5942   6.6595   6.6774
     6.6780   6.6799   6.7802   6.7839   6.7858   6.7906   6.8976   6.8982
     6.9940   6.9989   7.0750   7.0768   7.6745   7.6802

     occupation numbers 
     1.0000   1.0000   1.0000   1.0000   1.0000   1.0000   1.0000   1.0000
     1.0000   1.0000   1.0000   1.0000   1.0000   1.0000   1.0000   1.0000
     1.0000   1.0000   1.0000   1.0000   1.0000   1.0000   1.0000   1.0000
     1.0000   1.0000   1.0000   1.0000   1.0000   1.0000   1.0000   1.0000
     1.0000   1.0000   1.0000   1.0000   1.0000   1.0000   1.0000   1.0000
     1.0000   1.0000   1.0000   1.0000   1.0000   1.0000   1.0000   1.0000
     1.0000   1.0000   1.0000   1.0000   1.0000   1.0000   1.0000   1.0000
     1.0000   1.0000   1.0000   1.0000   1.0000   1.0000   1.0000   1.0000
     1.0000   1.0000   1.0000   1.0000   1.0000   1.0000   1.0000   1.0000
     1.0000   1.0000   1.0000   1.0000   1.0000   1.0000   1.0000   1.0000
     1.0000   1.0000   1.0000   1.0000   1.0000   1.0000   1.0000   1.0000
     1.0000   1.0000   1.0000   1.0000   1.0000   1.0000   1.0000   1.0000
     1.0000   1.0000   1.0000   1.0000   1.0000   1.0000   1.0000   1.0000
     1.0000   1.0000   1.0000   1.0000   1.0000   1.0000   1.0000   1.0000
     1.0000   1.0000   1.0000   1.0000   1.0000   1.0000   1.0000   1.0000
     1.0000   1.0000   1.0000   1.0000   1.0000   1.0000   1.0000   1.0000
     1.0000   1.0000   1.0000   1.0000   1.0000   1.0000   1.0000   1.0000
     1.0000   1.0000   1.0000   1.0000   1.0000   1.0000   1.0000   1.0000
     1.0000   1.0000   1.0000   1.0000   1.0000   1.0000   1.0000   1.0000
     1.0000   1.0000   1.0000   1.0000   1.0000   1.0000   1.0000   1.0000
     1.0000   1.0000   1.0000   1.0000   1.0000   1.0000   1.0000   1.0000
     1.0000   1.0000   1.0000   1.0000   1.0000   1.0000

          k = 0.0000 0.1540-0.0000 ( 79120 PWs)   bands (ev):

   -29.7814 -29.7814 -29.7810 -29.7810 -29.7810 -29.7810 -29.7792 -29.7792
   -29.7787 -29.7787 -29.7784 -29.7784 -29.7310 -29.7309 -29.7306 -29.7306
   -29.7306 -29.7305 -29.7299 -29.7298 -29.7295 -29.7294 -29.7292 -29.7291
   -28.3303 -28.3303 -28.3298 -28.3298 -28.3298 -28.3298 -28.3278 -28.3278
   -28.3273 -28.3273 -28.3270 -28.3270 -28.2865 -28.2865 -28.2861 -28.2861
   -28.2861 -28.2861 -28.2850 -28.2850 -28.2845 -28.2845 -28.2843 -28.2843
   -28.2646 -28.2645 -28.2642 -28.2641 -28.2641 -28.2641 -28.2635 -28.2634
   -28.2631 -28.2630 -28.2628 -28.2627  -7.4587  -7.4585  -7.4582  -7.4582
    -7.4580  -7.4577  -7.4253  -7.4253  -7.4251  -7.4251  -7.4248  -7.4248
    -7.4160  -7.4158  -7.4157  -7.4156  -7.4155  -7.4152  -7.4053  -7.4053
    -7.4051  -7.4051  -7.4049  -7.4048  -7.0041  -7.0038  -7.0036  -7.0036
    -7.0034  -7.0032  -6.9950  -6.9948  -6.9947  -6.9945  -6.9945  -6.9942
    -6.9765  -6.9763  -6.9761  -6.9760  -6.9758  -6.9756  -6.9441  -6.9440
    -6.9439  -6.9438  -6.9437  -6.9436  -6.8867  -6.8867  -6.8865  -6.8865
    -6.8863  -6.8863  -6.8591  -6.8590  -6.8589  -6.8588  -6.8587  -6.8586
    -4.5906  -4.5905  -4.5107  -4.5104  -4.5100  -4.5100  -4.3344  -4.3344
    -4.3337  -4.3335  -4.2365  -4.2364   1.1214   1.1214   1.3496   1.3504
     1.3532   1.3540   3.2984   3.3037   3.3102   3.3164   3.8286   3.8297
     5.1460   5.1487   5.2776   5.2872   5.2872   5.2879   5.6390   5.6406
     5.6618   5.6661   5.9417   5.9455   6.2438   6.2468   6.3437   6.3480
     6.3921   6.4003   6.5320   6.5468   6.5537   6.5686   6.5888   6.6014
     6.6908   6.7040   7.2913   7.3140   7.3334   7.3488

     occupation numbers 
     1.0000   1.0000   1.0000   1.0000   1.0000   1.0000   1.0000   1.0000
     1.0000   1.0000   1.0000   1.0000   1.0000   1.0000   1.0000   1.0000
     1.0000   1.0000   1.0000   1.0000   1.0000   1.0000   1.0000   1.0000
     1.0000   1.0000   1.0000   1.0000   1.0000   1.0000   1.0000   1.0000
     1.0000   1.0000   1.0000   1.0000   1.0000   1.0000   1.0000   1.0000
     1.0000   1.0000   1.0000   1.0000   1.0000   1.0000   1.0000   1.0000
     1.0000   1.0000   1.0000   1.0000   1.0000   1.0000   1.0000   1.0000
     1.0000   1.0000   1.0000   1.0000   1.0000   1.0000   1.0000   1.0000
     1.0000   1.0000   1.0000   1.0000   1.0000   1.0000   1.0000   1.0000
     1.0000   1.0000   1.0000   1.0000   1.0000   1.0000   1.0000   1.0000
     1.0000   1.0000   1.0000   1.0000   1.0000   1.0000   1.0000   1.0000
     1.0000   1.0000   1.0000   1.0000   1.0000   1.0000   1.0000   1.0000
     1.0000   1.0000   1.0000   1.0000   1.0000   1.0000   1.0000   1.0000
     1.0000   1.0000   1.0000   1.0000   1.0000   1.0000   1.0000   1.0000
     1.0000   1.0000   1.0000   1.0000   1.0000   1.0000   1.0000   1.0000
     1.0000   1.0000   1.0000   1.0000   1.0000   1.0000   1.0000   1.0000
     1.0000   1.0000   1.0000   1.0000   1.0000   1.0000   1.0000   1.0000
     1.0000   1.0000   1.0000   1.0000   1.0000   1.0000   1.0000   1.0000
     1.0000   1.0000   1.0000   1.0000   1.0000   1.0000   1.0000   1.0000
     1.0000   1.0000   1.0000   1.0000   1.0000   1.0000   1.0000   1.0000
     1.0000   1.0000   1.0000   1.0000   1.0000   1.0000   1.0000   1.0000
     1.0000   1.0000   1.0000   1.0000   1.0000   1.0000

          k = 0.0000 0.1540 0.0311 ( 79138 PWs)   bands (ev):

   -29.7814 -29.7814 -29.7810 -29.7810 -29.7810 -29.7810 -29.7792 -29.7792
   -29.7787 -29.7787 -29.7784 -29.7784 -29.7310 -29.7309 -29.7306 -29.7306
   -29.7306 -29.7305 -29.7299 -29.7298 -29.7295 -29.7294 -29.7292 -29.7291
   -28.3303 -28.3303 -28.3298 -28.3298 -28.3298 -28.3298 -28.3278 -28.3278
   -28.3273 -28.3273 -28.3270 -28.3270 -28.2865 -28.2865 -28.2861 -28.2861
   -28.2861 -28.2861 -28.2850 -28.2850 -28.2845 -28.2845 -28.2843 -28.2843
   -28.2646 -28.2645 -28.2642 -28.2641 -28.2641 -28.2641 -28.2635 -28.2634
   -28.2631 -28.2630 -28.2628 -28.2627  -7.4587  -7.4585  -7.4582  -7.4582
    -7.4580  -7.4577  -7.4253  -7.4253  -7.4251  -7.4251  -7.4248  -7.4248
    -7.4160  -7.4158  -7.4157  -7.4156  -7.4155  -7.4152  -7.4053  -7.4053
    -7.4051  -7.4051  -7.4049  -7.4048  -7.0041  -7.0038  -7.0036  -7.0036
    -7.0034  -7.0032  -6.9950  -6.9948  -6.9947  -6.9945  -6.9945  -6.9942
    -6.9765  -6.9763  -6.9761  -6.9760  -6.9758  -6.9756  -6.9441  -6.9440
    -6.9439  -6.9438  -6.9437  -6.9436  -6.8867  -6.8867  -6.8865  -6.8865
    -6.8863  -6.8863  -6.8591  -6.8590  -6.8589  -6.8588  -6.8587  -6.8586
    -4.5871  -4.5871  -4.5383  -4.5380  -4.4782  -4.4782  -4.3697  -4.3696
    -4.3017  -4.3015  -4.2410  -4.2410   1.1335   1.1337   1.2817   1.2825
     1.4110   1.4117   3.1944   3.1978   3.4452   3.4531   3.7921   3.7954
     5.1551   5.1574   5.2510   5.2628   5.3052   5.3082   5.6163   5.6332
     5.6725   5.7034   5.8952   5.9331   6.2647   6.2989   6.3444   6.3463
     6.4007   6.4167   6.5058   6.5199   6.5211   6.5426   6.6006   6.6064
     6.7505   6.7627   7.1385   7.1593   7.4535   7.4622

     occupation numbers 
     1.0000   1.0000   1.0000   1.0000   1.0000   1.0000   1.0000   1.0000
     1.0000   1.0000   1.0000   1.0000   1.0000   1.0000   1.0000   1.0000
     1.0000   1.0000   1.0000   1.0000   1.0000   1.0000   1.0000   1.0000
     1.0000   1.0000   1.0000   1.0000   1.0000   1.0000   1.0000   1.0000
     1.0000   1.0000   1.0000   1.0000   1.0000   1.0000   1.0000   1.0000
     1.0000   1.0000   1.0000   1.0000   1.0000   1.0000   1.0000   1.0000
     1.0000   1.0000   1.0000   1.0000   1.0000   1.0000   1.0000   1.0000
     1.0000   1.0000   1.0000   1.0000   1.0000   1.0000   1.0000   1.0000
     1.0000   1.0000   1.0000   1.0000   1.0000   1.0000   1.0000   1.0000
     1.0000   1.0000   1.0000   1.0000   1.0000   1.0000   1.0000   1.0000
     1.0000   1.0000   1.0000   1.0000   1.0000   1.0000   1.0000   1.0000
     1.0000   1.0000   1.0000   1.0000   1.0000   1.0000   1.0000   1.0000
     1.0000   1.0000   1.0000   1.0000   1.0000   1.0000   1.0000   1.0000
     1.0000   1.0000   1.0000   1.0000   1.0000   1.0000   1.0000   1.0000
     1.0000   1.0000   1.0000   1.0000   1.0000   1.0000   1.0000   1.0000
     1.0000   1.0000   1.0000   1.0000   1.0000   1.0000   1.0000   1.0000
     1.0000   1.0000   1.0000   1.0000   1.0000   1.0000   1.0000   1.0000
     1.0000   1.0000   1.0000   1.0000   1.0000   1.0000   1.0000   1.0000
     1.0000   1.0000   1.0000   1.0000   1.0000   1.0000   1.0000   1.0000
     1.0000   1.0000   1.0000   1.0000   1.0000   1.0000   1.0000   1.0000
     1.0000   1.0000   1.0000   1.0000   1.0000   1.0000   1.0000   1.0000
     1.0000   1.0000   1.0000   1.0000   1.0000   1.0000

          k = 0.0000 0.1540 0.0622 ( 79143 PWs)   bands (ev):

   -29.7814 -29.7814 -29.7810 -29.7810 -29.7810 -29.7810 -29.7792 -29.7792
   -29.7787 -29.7787 -29.7784 -29.7784 -29.7310 -29.7309 -29.7306 -29.7306
   -29.7306 -29.7305 -29.7299 -29.7298 -29.7295 -29.7294 -29.7292 -29.7291
   -28.3303 -28.3303 -28.3298 -28.3298 -28.3298 -28.3298 -28.3278 -28.3278
   -28.3273 -28.3273 -28.3270 -28.3270 -28.2865 -28.2865 -28.2861 -28.2861
   -28.2861 -28.2861 -28.2850 -28.2850 -28.2845 -28.2845 -28.2843 -28.2843
   -28.2646 -28.2645 -28.2642 -28.2641 -28.2641 -28.2641 -28.2635 -28.2634
   -28.2631 -28.2630 -28.2628 -28.2627  -7.4587  -7.4585  -7.4582  -7.4582
    -7.4580  -7.4577  -7.4253  -7.4253  -7.4251  -7.4251  -7.4248  -7.4248
    -7.4160  -7.4158  -7.4157  -7.4156  -7.4155  -7.4152  -7.4053  -7.4053
    -7.4051  -7.4051  -7.4049  -7.4048  -7.0041  -7.0038  -7.0036  -7.0036
    -7.0034  -7.0032  -6.9950  -6.9948  -6.9947  -6.9945  -6.9945  -6.9942
    -6.9765  -6.9763  -6.9761  -6.9760  -6.9758  -6.9756  -6.9441  -6.9440
    -6.9439  -6.9438  -6.9437  -6.9436  -6.8867  -6.8867  -6.8865  -6.8865
    -6.8863  -6.8863  -6.8591  -6.8590  -6.8589  -6.8588  -6.8587  -6.8586
    -4.5769  -4.5769  -4.5607  -4.5604  -4.4437  -4.4433  -4.4065  -4.4061
    -4.2745  -4.2743  -4.2540  -4.2540   1.1676   1.1681   1.2172   1.2179
     1.4446   1.4449   3.1384   3.1394   3.5860   3.5948   3.7000   3.7062
     5.1809   5.1859   5.2180   5.2306   5.3116   5.3166   5.6094   5.6165
     5.7243   5.7615   5.8183   5.8620   6.3206   6.3483   6.3505   6.3507
     6.3776   6.4075   6.5054   6.5098   6.5150   6.5386   6.6009   6.6011
     6.8662   6.8684   6.9788   6.9936   7.5137   7.5156

     occupation numbers 
     1.0000   1.0000   1.0000   1.0000   1.0000   1.0000   1.0000   1.0000
     1.0000   1.0000   1.0000   1.0000   1.0000   1.0000   1.0000   1.0000
     1.0000   1.0000   1.0000   1.0000   1.0000   1.0000   1.0000   1.0000
     1.0000   1.0000   1.0000   1.0000   1.0000   1.0000   1.0000   1.0000
     1.0000   1.0000   1.0000   1.0000   1.0000   1.0000   1.0000   1.0000
     1.0000   1.0000   1.0000   1.0000   1.0000   1.0000   1.0000   1.0000
     1.0000   1.0000   1.0000   1.0000   1.0000   1.0000   1.0000   1.0000
     1.0000   1.0000   1.0000   1.0000   1.0000   1.0000   1.0000   1.0000
     1.0000   1.0000   1.0000   1.0000   1.0000   1.0000   1.0000   1.0000
     1.0000   1.0000   1.0000   1.0000   1.0000   1.0000   1.0000   1.0000
     1.0000   1.0000   1.0000   1.0000   1.0000   1.0000   1.0000   1.0000
     1.0000   1.0000   1.0000   1.0000   1.0000   1.0000   1.0000   1.0000
     1.0000   1.0000   1.0000   1.0000   1.0000   1.0000   1.0000   1.0000
     1.0000   1.0000   1.0000   1.0000   1.0000   1.0000   1.0000   1.0000
     1.0000   1.0000   1.0000   1.0000   1.0000   1.0000   1.0000   1.0000
     1.0000   1.0000   1.0000   1.0000   1.0000   1.0000   1.0000   1.0000
     1.0000   1.0000   1.0000   1.0000   1.0000   1.0000   1.0000   1.0000
     1.0000   1.0000   1.0000   1.0000   1.0000   1.0000   1.0000   1.0000
     1.0000   1.0000   1.0000   1.0000   1.0000   1.0000   1.0000   1.0000
     1.0000   1.0000   1.0000   1.0000   1.0000   1.0000   1.0000   1.0000
     1.0000   1.0000   1.0000   1.0000   1.0000   1.0000   1.0000   1.0000
     1.0000   1.0000   1.0000   1.0000   1.0000   1.0000

          k = 0.0000 0.2309-0.0000 ( 79174 PWs)   bands (ev):

   -29.7812 -29.7812 -29.7807 -29.7807 -29.7807 -29.7807 -29.7790 -29.7790
   -29.7785 -29.7785 -29.7782 -29.7782 -29.7310 -29.7309 -29.7306 -29.7306
   -29.7305 -29.7304 -29.7299 -29.7298 -29.7295 -29.7293 -29.7292 -29.7291
   -28.3299 -28.3299 -28.3294 -28.3294 -28.3294 -28.3294 -28.3274 -28.3274
   -28.3269 -28.3269 -28.3267 -28.3267 -28.2865 -28.2865 -28.2861 -28.2861
   -28.2861 -28.2861 -28.2850 -28.2850 -28.2846 -28.2846 -28.2843 -28.2843
   -28.2644 -28.2643 -28.2640 -28.2640 -28.2639 -28.2639 -28.2633 -28.2632
   -28.2629 -28.2628 -28.2627 -28.2625  -7.4598  -7.4596  -7.4593  -7.4591
    -7.4589  -7.4587  -7.4271  -7.4271  -7.4269  -7.4269  -7.4267  -7.4267
    -7.4191  -7.4189  -7.4186  -7.4184  -7.4181  -7.4179  -7.4061  -7.4059
    -7.4059  -7.4057  -7.4057  -7.4055  -7.0109  -7.0106  -7.0104  -7.0102
    -7.0100  -7.0097  -6.9971  -6.9970  -6.9969  -6.9968  -6.9966  -6.9965
    -6.9766  -6.9764  -6.9762  -6.9762  -6.9759  -6.9757  -6.9433  -6.9432
    -6.9431  -6.9430  -6.9429  -6.9428  -6.8908  -6.8908  -6.8905  -6.8905
    -6.8903  -6.8903  -6.8553  -6.8552  -6.8552  -6.8551  -6.8549  -6.8548
    -4.3918  -4.3917  -4.3155  -4.3149  -4.3137  -4.3135  -4.1465  -4.1463
    -4.1446  -4.1441  -4.0524  -4.0523   1.1774   1.1774   1.3390   1.3408
     1.3515   1.3536   3.1712   3.1841   3.2170   3.2308   3.4091   3.4123
     4.4460   4.4536   4.5442   4.5480   4.5630   4.5647   5.0532   5.0661
     5.0932   5.1045   5.6148   5.6236   6.0355   6.0441   6.0544   6.0555
     6.1004   6.1090   6.2496   6.2660   6.2805   6.2956   6.3325   6.3417
     6.5669   6.5769   7.0601   7.0874   7.1434   7.1658

     occupation numbers 
     1.0000   1.0000   1.0000   1.0000   1.0000   1.0000   1.0000   1.0000
     1.0000   1.0000   1.0000   1.0000   1.0000   1.0000   1.0000   1.0000
     1.0000   1.0000   1.0000   1.0000   1.0000   1.0000   1.0000   1.0000
     1.0000   1.0000   1.0000   1.0000   1.0000   1.0000   1.0000   1.0000
     1.0000   1.0000   1.0000   1.0000   1.0000   1.0000   1.0000   1.0000
     1.0000   1.0000   1.0000   1.0000   1.0000   1.0000   1.0000   1.0000
     1.0000   1.0000   1.0000   1.0000   1.0000   1.0000   1.0000   1.0000
     1.0000   1.0000   1.0000   1.0000   1.0000   1.0000   1.0000   1.0000
     1.0000   1.0000   1.0000   1.0000   1.0000   1.0000   1.0000   1.0000
     1.0000   1.0000   1.0000   1.0000   1.0000   1.0000   1.0000   1.0000
     1.0000   1.0000   1.0000   1.0000   1.0000   1.0000   1.0000   1.0000
     1.0000   1.0000   1.0000   1.0000   1.0000   1.0000   1.0000   1.0000
     1.0000   1.0000   1.0000   1.0000   1.0000   1.0000   1.0000   1.0000
     1.0000   1.0000   1.0000   1.0000   1.0000   1.0000   1.0000   1.0000
     1.0000   1.0000   1.0000   1.0000   1.0000   1.0000   1.0000   1.0000
     1.0000   1.0000   1.0000   1.0000   1.0000   1.0000   1.0000   1.0000
     1.0000   1.0000   1.0000   1.0000   1.0000   1.0000   1.0000   1.0000
     1.0000   1.0000   1.0000   1.0000   1.0000   1.0000   1.0000   1.0000
     1.0000   1.0000   1.0000   1.0000   1.0000   1.0000   1.0000   1.0000
     1.0000   1.0000   1.0000   1.0000   1.0000   1.0000   1.0000   1.0000
     1.0000   1.0000   1.0000   1.0000   1.0000   1.0000   1.0000   1.0000
     1.0000   1.0000   1.0000   1.0000   1.0000   1.0000

          k = 0.0000 0.2309 0.0311 ( 79180 PWs)   bands (ev):

   -29.7812 -29.7812 -29.7807 -29.7807 -29.7807 -29.7807 -29.7790 -29.7790
   -29.7785 -29.7785 -29.7782 -29.7782 -29.7310 -29.7309 -29.7306 -29.7306
   -29.7305 -29.7304 -29.7299 -29.7298 -29.7295 -29.7293 -29.7292 -29.7291
   -28.3299 -28.3299 -28.3294 -28.3294 -28.3294 -28.3294 -28.3274 -28.3274
   -28.3269 -28.3269 -28.3267 -28.3267 -28.2865 -28.2865 -28.2861 -28.2861
   -28.2861 -28.2861 -28.2850 -28.2850 -28.2846 -28.2846 -28.2843 -28.2843
   -28.2644 -28.2643 -28.2640 -28.2640 -28.2639 -28.2639 -28.2633 -28.2632
   -28.2629 -28.2628 -28.2627 -28.2625  -7.4598  -7.4596  -7.4593  -7.4591
    -7.4589  -7.4587  -7.4271  -7.4271  -7.4269  -7.4269  -7.4267  -7.4267
    -7.4191  -7.4189  -7.4186  -7.4184  -7.4181  -7.4179  -7.4061  -7.4059
    -7.4059  -7.4057  -7.4057  -7.4055  -7.0109  -7.0106  -7.0104  -7.0102
    -7.0100  -7.0097  -6.9971  -6.9970  -6.9969  -6.9968  -6.9966  -6.9965
    -6.9766  -6.9764  -6.9762  -6.9762  -6.9759  -6.9757  -6.9433  -6.9432
    -6.9431  -6.9430  -6.9429  -6.9428  -6.8908  -6.8908  -6.8905  -6.8905
    -6.8903  -6.8903  -6.8553  -6.8552  -6.8552  -6.8551  -6.8549  -6.8548
    -4.3882  -4.3882  -4.3420  -4.3414  -4.2829  -4.2828  -4.1803  -4.1801
    -4.1140  -4.1136  -4.0568  -4.0568   1.1883   1.1889   1.2907   1.2926
     1.3896   1.3912   3.1315   3.1408   3.2775   3.2945   3.3875   3.3912
     4.4536   4.4585   4.5141   4.5217   4.5897   4.5910   4.9895   5.0129
     5.1516   5.2007   5.5527   5.6012   6.0365   6.0419   6.0591   6.0819
     6.1177   6.1352   6.2234   6.2382   6.2607   6.2870   6.3372   6.3401
     6.6386   6.6396   6.9538   6.9841   7.2066   7.2193

     occupation numbers 
     1.0000   1.0000   1.0000   1.0000   1.0000   1.0000   1.0000   1.0000
     1.0000   1.0000   1.0000   1.0000   1.0000   1.0000   1.0000   1.0000
     1.0000   1.0000   1.0000   1.0000   1.0000   1.0000   1.0000   1.0000
     1.0000   1.0000   1.0000   1.0000   1.0000   1.0000   1.0000   1.0000
     1.0000   1.0000   1.0000   1.0000   1.0000   1.0000   1.0000   1.0000
     1.0000   1.0000   1.0000   1.0000   1.0000   1.0000   1.0000   1.0000
     1.0000   1.0000   1.0000   1.0000   1.0000   1.0000   1.0000   1.0000
     1.0000   1.0000   1.0000   1.0000   1.0000   1.0000   1.0000   1.0000
     1.0000   1.0000   1.0000   1.0000   1.0000   1.0000   1.0000   1.0000
     1.0000   1.0000   1.0000   1.0000   1.0000   1.0000   1.0000   1.0000
     1.0000   1.0000   1.0000   1.0000   1.0000   1.0000   1.0000   1.0000
     1.0000   1.0000   1.0000   1.0000   1.0000   1.0000   1.0000   1.0000
     1.0000   1.0000   1.0000   1.0000   1.0000   1.0000   1.0000   1.0000
     1.0000   1.0000   1.0000   1.0000   1.0000   1.0000   1.0000   1.0000
     1.0000   1.0000   1.0000   1.0000   1.0000   1.0000   1.0000   1.0000
     1.0000   1.0000   1.0000   1.0000   1.0000   1.0000   1.0000   1.0000
     1.0000   1.0000   1.0000   1.0000   1.0000   1.0000   1.0000   1.0000
     1.0000   1.0000   1.0000   1.0000   1.0000   1.0000   1.0000   1.0000
     1.0000   1.0000   1.0000   1.0000   1.0000   1.0000   1.0000   1.0000
     1.0000   1.0000   1.0000   1.0000   1.0000   1.0000   1.0000   1.0000
     1.0000   1.0000   1.0000   1.0000   1.0000   1.0000   1.0000   1.0000
     1.0000   1.0000   1.0000   1.0000   1.0000   1.0000

          k = 0.0000 0.2309 0.0622 ( 79216 PWs)   bands (ev):

   -29.7812 -29.7812 -29.7807 -29.7807 -29.7807 -29.7807 -29.7790 -29.7790
   -29.7785 -29.7785 -29.7782 -29.7782 -29.7310 -29.7309 -29.7306 -29.7306
   -29.7305 -29.7304 -29.7299 -29.7298 -29.7295 -29.7293 -29.7292 -29.7291
   -28.3299 -28.3299 -28.3294 -28.3294 -28.3294 -28.3294 -28.3274 -28.3274
   -28.3269 -28.3269 -28.3267 -28.3267 -28.2865 -28.2865 -28.2861 -28.2861
   -28.2861 -28.2861 -28.2850 -28.2850 -28.2846 -28.2846 -28.2843 -28.2843
   -28.2644 -28.2643 -28.2640 -28.2640 -28.2639 -28.2639 -28.2633 -28.2632
   -28.2629 -28.2628 -28.2627 -28.2625  -7.4598  -7.4596  -7.4593  -7.4591
    -7.4589  -7.4587  -7.4271  -7.4271  -7.4269  -7.4269  -7.4267  -7.4267
    -7.4191  -7.4189  -7.4186  -7.4184  -7.4181  -7.4179  -7.4061  -7.4059
    -7.4059  -7.4057  -7.4057  -7.4055  -7.0109  -7.0107  -7.0104  -7.0102
    -7.0100  -7.0097  -6.9971  -6.9970  -6.9969  -6.9968  -6.9966  -6.9965
    -6.9766  -6.9764  -6.9762  -6.9762  -6.9759  -6.9757  -6.9433  -6.9432
    -6.9431  -6.9430  -6.9429  -6.9428  -6.8908  -6.8908  -6.8905  -6.8905
    -6.8903  -6.8903  -6.8553  -6.8552  -6.8552  -6.8551  -6.8549  -6.8548
    -4.3783  -4.3782  -4.3634  -4.3630  -4.2496  -4.2492  -4.2155  -4.2151
    -4.0882  -4.0878  -4.0695  -4.0693   1.2156   1.2169   1.2443   1.2460
     1.4097   1.4105   3.1168   3.1207   3.3343   3.3439   3.3518   3.3534
     4.4721   4.4747   4.4865   4.4968   4.6022   4.6027   4.9539   4.9593
     5.2748   5.3293   5.4352   5.4962   6.0449   6.0474   6.0631   6.0848
     6.1106   6.1424   6.2227   6.2295   6.2667   6.2954   6.3286   6.3316
     6.7607   6.7762   6.8307   6.8595   7.2280   7.2288

     occupation numbers 
     1.0000   1.0000   1.0000   1.0000   1.0000   1.0000   1.0000   1.0000
     1.0000   1.0000   1.0000   1.0000   1.0000   1.0000   1.0000   1.0000
     1.0000   1.0000   1.0000   1.0000   1.0000   1.0000   1.0000   1.0000
     1.0000   1.0000   1.0000   1.0000   1.0000   1.0000   1.0000   1.0000
     1.0000   1.0000   1.0000   1.0000   1.0000   1.0000   1.0000   1.0000
     1.0000   1.0000   1.0000   1.0000   1.0000   1.0000   1.0000   1.0000
     1.0000   1.0000   1.0000   1.0000   1.0000   1.0000   1.0000   1.0000
     1.0000   1.0000   1.0000   1.0000   1.0000   1.0000   1.0000   1.0000
     1.0000   1.0000   1.0000   1.0000   1.0000   1.0000   1.0000   1.0000
     1.0000   1.0000   1.0000   1.0000   1.0000   1.0000   1.0000   1.0000
     1.0000   1.0000   1.0000   1.0000   1.0000   1.0000   1.0000   1.0000
     1.0000   1.0000   1.0000   1.0000   1.0000   1.0000   1.0000   1.0000
     1.0000   1.0000   1.0000   1.0000   1.0000   1.0000   1.0000   1.0000
     1.0000   1.0000   1.0000   1.0000   1.0000   1.0000   1.0000   1.0000
     1.0000   1.0000   1.0000   1.0000   1.0000   1.0000   1.0000   1.0000
     1.0000   1.0000   1.0000   1.0000   1.0000   1.0000   1.0000   1.0000
     1.0000   1.0000   1.0000   1.0000   1.0000   1.0000   1.0000   1.0000
     1.0000   1.0000   1.0000   1.0000   1.0000   1.0000   1.0000   1.0000
     1.0000   1.0000   1.0000   1.0000   1.0000   1.0000   1.0000   1.0000
     1.0000   1.0000   1.0000   1.0000   1.0000   1.0000   1.0000   1.0000
     1.0000   1.0000   1.0000   1.0000   1.0000   1.0000   1.0000   1.0000
     1.0000   1.0000   1.0000   1.0000   1.0000   1.0000

          k = 0.0000 0.3079-0.0000 ( 79178 PWs)   bands (ev):

   -29.7810 -29.7810 -29.7805 -29.7805 -29.7805 -29.7805 -29.7787 -29.7787
   -29.7782 -29.7782 -29.7780 -29.7780 -29.7309 -29.7308 -29.7305 -29.7305
   -29.7304 -29.7304 -29.7298 -29.7297 -29.7294 -29.7293 -29.7291 -29.7290
   -28.3295 -28.3295 -28.3290 -28.3290 -28.3290 -28.3290 -28.3270 -28.3270
   -28.3265 -28.3265 -28.3263 -28.3263 -28.2866 -28.2866 -28.2862 -28.2862
   -28.2861 -28.2861 -28.2851 -28.2851 -28.2847 -28.2847 -28.2844 -28.2844
   -28.2642 -28.2641 -28.2638 -28.2638 -28.2637 -28.2637 -28.2632 -28.2631
   -28.2628 -28.2626 -28.2625 -28.2624  -7.4611  -7.4609  -7.4606  -7.4602
    -7.4600  -7.4598  -7.4298  -7.4297  -7.4296  -7.4294  -7.4293  -7.4292
    -7.4225  -7.4223  -7.4221  -7.4216  -7.4214  -7.4212  -7.4066  -7.4064
    -7.4063  -7.4061  -7.4061  -7.4058  -7.0179  -7.0176  -7.0173  -7.0172
    -7.0169  -7.0166  -6.9994  -6.9994  -6.9992  -6.9991  -6.9989  -6.9989
    -6.9767  -6.9765  -6.9763  -6.9763  -6.9761  -6.9759  -6.9422  -6.9421
    -6.9421  -6.9419  -6.9418  -6.9417  -6.8942  -6.8941  -6.8939  -6.8939
    -6.8937  -6.8937  -6.8518  -6.8517  -6.8516  -6.8515  -6.8514  -6.8513
    -4.1343  -4.1342  -4.0645  -4.0636  -4.0597  -4.0593  -3.9075  -3.9070
    -3.9024  -3.9017  -3.8190  -3.8189   1.1575   1.1577   1.2206   1.2233
     1.2488   1.2524   2.7737   2.7879   2.8093   2.8139   2.8591   2.8717
     3.8869   3.8968   4.0502   4.0653   4.0696   4.0806   4.7647   4.7991
     4.8303   4.8549   5.4778   5.4958   5.7538   5.7693   5.8270   5.8345
     5.8389   5.8468   5.9791   5.9989   6.0387   6.0475   6.0820   6.0870
     6.4497   6.4570   6.7011   6.7277   6.8323   6.8591

     occupation numbers 
     1.0000   1.0000   1.0000   1.0000   1.0000   1.0000   1.0000   1.0000
     1.0000   1.0000   1.0000   1.0000   1.0000   1.0000   1.0000   1.0000
     1.0000   1.0000   1.0000   1.0000   1.0000   1.0000   1.0000   1.0000
     1.0000   1.0000   1.0000   1.0000   1.0000   1.0000   1.0000   1.0000
     1.0000   1.0000   1.0000   1.0000   1.0000   1.0000   1.0000   1.0000
     1.0000   1.0000   1.0000   1.0000   1.0000   1.0000   1.0000   1.0000
     1.0000   1.0000   1.0000   1.0000   1.0000   1.0000   1.0000   1.0000
     1.0000   1.0000   1.0000   1.0000   1.0000   1.0000   1.0000   1.0000
     1.0000   1.0000   1.0000   1.0000   1.0000   1.0000   1.0000   1.0000
     1.0000   1.0000   1.0000   1.0000   1.0000   1.0000   1.0000   1.0000
     1.0000   1.0000   1.0000   1.0000   1.0000   1.0000   1.0000   1.0000
     1.0000   1.0000   1.0000   1.0000   1.0000   1.0000   1.0000   1.0000
     1.0000   1.0000   1.0000   1.0000   1.0000   1.0000   1.0000   1.0000
     1.0000   1.0000   1.0000   1.0000   1.0000   1.0000   1.0000   1.0000
     1.0000   1.0000   1.0000   1.0000   1.0000   1.0000   1.0000   1.0000
     1.0000   1.0000   1.0000   1.0000   1.0000   1.0000   1.0000   1.0000
     1.0000   1.0000   1.0000   1.0000   1.0000   1.0000   1.0000   1.0000
     1.0000   1.0000   1.0000   1.0000   1.0000   1.0000   1.0000   1.0000
     1.0000   1.0000   1.0000   1.0000   1.0000   1.0000   1.0000   1.0000
     1.0000   1.0000   1.0000   1.0000   1.0000   1.0000   1.0000   1.0000
     1.0000   1.0000   1.0000   1.0000   1.0000   1.0000   1.0000   1.0000
     1.0000   1.0000   1.0000   1.0000   1.0000   1.0000

          k = 0.0000 0.3079 0.0311 ( 79226 PWs)   bands (ev):

   -29.7810 -29.7810 -29.7805 -29.7805 -29.7805 -29.7805 -29.7787 -29.7787
   -29.7782 -29.7782 -29.7780 -29.7780 -29.7309 -29.7308 -29.7305 -29.7305
   -29.7304 -29.7304 -29.7298 -29.7297 -29.7294 -29.7293 -29.7291 -29.7290
   -28.3295 -28.3295 -28.3290 -28.3290 -28.3290 -28.3290 -28.3270 -28.3270
   -28.3265 -28.3265 -28.3263 -28.3263 -28.2866 -28.2866 -28.2862 -28.2862
   -28.2861 -28.2861 -28.2851 -28.2851 -28.2847 -28.2847 -28.2844 -28.2844
   -28.2642 -28.2641 -28.2638 -28.2638 -28.2637 -28.2637 -28.2632 -28.2631
   -28.2628 -28.2626 -28.2625 -28.2624  -7.4611  -7.4609  -7.4606  -7.4602
    -7.4600  -7.4598  -7.4298  -7.4297  -7.4296  -7.4294  -7.4293  -7.4292
    -7.4225  -7.4223  -7.4221  -7.4216  -7.4214  -7.4212  -7.4066  -7.4064
    -7.4063  -7.4061  -7.4061  -7.4058  -7.0179  -7.0176  -7.0173  -7.0172
    -7.0169  -7.0166  -6.9994  -6.9994  -6.9992  -6.9991  -6.9989  -6.9989
    -6.9767  -6.9765  -6.9763  -6.9763  -6.9761  -6.9759  -6.9422  -6.9421
    -6.9421  -6.9419  -6.9418  -6.9417  -6.8942  -6.8941  -6.8939  -6.8939
    -6.8937  -6.8937  -6.8518  -6.8517  -6.8516  -6.8515  -6.8514  -6.8513
    -4.1306  -4.1306  -4.0889  -4.0882  -4.0308  -4.0304  -3.9389  -3.9385
    -3.8743  -3.8737  -3.8235  -3.8234   1.1676   1.1686   1.1978   1.2010
     1.2613   1.2640   2.7909   2.7939   2.7953   2.8025   2.8583   2.8743
     3.8962   3.9065   3.9935   3.9995   4.1376   4.1453   4.6577   4.6935
     4.9289   5.0014   5.4103   5.4740   5.7543   5.7648   5.8311   5.8472
     5.8619   5.8724   5.9553   5.9697   6.0261   6.0438   6.0808   6.0822
     6.5154   6.5305   6.6440   6.6776   6.8416   6.8574

     occupation numbers 
     1.0000   1.0000   1.0000   1.0000   1.0000   1.0000   1.0000   1.0000
     1.0000   1.0000   1.0000   1.0000   1.0000   1.0000   1.0000   1.0000
     1.0000   1.0000   1.0000   1.0000   1.0000   1.0000   1.0000   1.0000
     1.0000   1.0000   1.0000   1.0000   1.0000   1.0000   1.0000   1.0000
     1.0000   1.0000   1.0000   1.0000   1.0000   1.0000   1.0000   1.0000
     1.0000   1.0000   1.0000   1.0000   1.0000   1.0000   1.0000   1.0000
     1.0000   1.0000   1.0000   1.0000   1.0000   1.0000   1.0000   1.0000
     1.0000   1.0000   1.0000   1.0000   1.0000   1.0000   1.0000   1.0000
     1.0000   1.0000   1.0000   1.0000   1.0000   1.0000   1.0000   1.0000
     1.0000   1.0000   1.0000   1.0000   1.0000   1.0000   1.0000   1.0000
     1.0000   1.0000   1.0000   1.0000   1.0000   1.0000   1.0000   1.0000
     1.0000   1.0000   1.0000   1.0000   1.0000   1.0000   1.0000   1.0000
     1.0000   1.0000   1.0000   1.0000   1.0000   1.0000   1.0000   1.0000
     1.0000   1.0000   1.0000   1.0000   1.0000   1.0000   1.0000   1.0000
     1.0000   1.0000   1.0000   1.0000   1.0000   1.0000   1.0000   1.0000
     1.0000   1.0000   1.0000   1.0000   1.0000   1.0000   1.0000   1.0000
     1.0000   1.0000   1.0000   1.0000   1.0000   1.0000   1.0000   1.0000
     1.0000   1.0000   1.0000   1.0000   1.0000   1.0000   1.0000   1.0000
     1.0000   1.0000   1.0000   1.0000   1.0000   1.0000   1.0000   1.0000
     1.0000   1.0000   1.0000   1.0000   1.0000   1.0000   1.0000   1.0000
     1.0000   1.0000   1.0000   1.0000   1.0000   1.0000   1.0000   1.0000
     1.0000   1.0000   1.0000   1.0000   1.0000   1.0000

          k = 0.0000 0.3079 0.0622 ( 79245 PWs)   bands (ev):

   -29.7810 -29.7810 -29.7805 -29.7805 -29.7805 -29.7805 -29.7787 -29.7787
   -29.7782 -29.7782 -29.7780 -29.7780 -29.7309 -29.7308 -29.7305 -29.7305
[...]

   -29.7806 -29.7804 -29.7802 -29.7801 -29.7799 -29.7799 -29.7784 -29.7781
   -29.7779 -29.7776 -29.7776 -29.7774 -29.7308 -29.7307 -29.7304 -29.7304
   -29.7303 -29.7303 -29.7297 -29.7296 -29.7293 -29.7292 -29.7290 -29.7289
   -28.3289 -28.3286 -28.3284 -28.3284 -28.3281 -28.3281 -28.3264 -28.3261
   -28.3259 -28.3257 -28.3256 -28.3253 -28.2868 -28.2866 -28.2864 -28.2863
   -28.2861 -28.2861 -28.2853 -28.2851 -28.2849 -28.2846 -28.2846 -28.2844
   -28.2638 -28.2637 -28.2634 -28.2634 -28.2634 -28.2633 -28.2628 -28.2627
   -28.2624 -28.2623 -28.2621 -28.2620  -7.4661  -7.4659  -7.4656  -7.4566
    -7.4564  -7.4561  -7.4437  -7.4435  -7.4432  -7.4399  -7.4397  -7.4395
    -7.4315  -7.4313  -7.4310  -7.4131  -7.4129  -7.4126  -7.4083  -7.4081
    -7.4079  -7.4047  -7.4045  -7.4043  -7.0366  -7.0363  -7.0360  -7.0181
    -7.0179  -7.0176  -7.0150  -7.0147  -7.0145  -6.9986  -6.9984  -6.9982
    -6.9876  -6.9874  -6.9871  -6.9622  -6.9620  -6.9618  -6.9420  -6.9418
    -6.9416  -6.9363  -6.9361  -6.9359  -6.9056  -6.9053  -6.9051  -6.8950
    -6.8948  -6.8946  -6.8474  -6.8473  -6.8470  -6.8452  -6.8450  -6.8448
    -3.5113  -3.5102  -3.4969  -3.4959  -3.4270  -3.4260  -3.3960  -3.3951
    -3.3215  -3.3211  -3.3053  -3.3050   0.7094   0.7378   0.7433   0.7691
     0.7959   0.8026   1.8019   1.8126   1.8650   1.9235   1.9384   1.9900
     3.8495   3.8645   3.8983   3.9523   3.9583   4.1884   4.2984   4.3080
     4.3684   4.3871   4.3888   4.4868   4.5285   4.6008   4.6415   4.6870
     4.7466   4.7554   5.0436   5.0609   5.5443   5.6363   5.7012   5.7945
     6.0087   6.0537   6.0541   6.0981   6.1369   6.1725

     occupation numbers 
     1.0000   1.0000   1.0000   1.0000   1.0000   1.0000   1.0000   1.0000
     1.0000   1.0000   1.0000   1.0000   1.0000   1.0000   1.0000   1.0000
     1.0000   1.0000   1.0000   1.0000   1.0000   1.0000   1.0000   1.0000
     1.0000   1.0000   1.0000   1.0000   1.0000   1.0000   1.0000   1.0000
     1.0000   1.0000   1.0000   1.0000   1.0000   1.0000   1.0000   1.0000
     1.0000   1.0000   1.0000   1.0000   1.0000   1.0000   1.0000   1.0000
     1.0000   1.0000   1.0000   1.0000   1.0000   1.0000   1.0000   1.0000
     1.0000   1.0000   1.0000   1.0000   1.0000   1.0000   1.0000   1.0000
     1.0000   1.0000   1.0000   1.0000   1.0000   1.0000   1.0000   1.0000
     1.0000   1.0000   1.0000   1.0000   1.0000   1.0000   1.0000   1.0000
     1.0000   1.0000   1.0000   1.0000   1.0000   1.0000   1.0000   1.0000
     1.0000   1.0000   1.0000   1.0000   1.0000   1.0000   1.0000   1.0000
     1.0000   1.0000   1.0000   1.0000   1.0000   1.0000   1.0000   1.0000
     1.0000   1.0000   1.0000   1.0000   1.0000   1.0000   1.0000   1.0000
     1.0000   1.0000   1.0000   1.0000   1.0000   1.0000   1.0000   1.0000
     1.0000   1.0000   1.0000   1.0000   1.0000   1.0000   1.0000   1.0000
     1.0000   1.0000   1.0000   1.0000   1.0000   1.0000   1.0000   1.0000
     1.0000   1.0000   1.0000   1.0000   1.0000   1.0000   1.0000   1.0000
     1.0000   1.0000   1.0000   1.0000   1.0000   1.0000   1.0000   1.0000
     1.0000   1.0000   1.0000   1.0000   1.0000   1.0000   1.0000   1.0000
     1.0000   1.0000   1.0000   1.0000   1.0000   1.0000   1.0000   1.0000
     1.0000   1.0000   1.0000   1.0000   1.0000   1.0000

          k =-0.2000-0.5004 0.0311 ( 79325 PWs)   bands (ev):

   -29.7805 -29.7802 -29.7801 -29.7801 -29.7798 -29.7798 -29.7783 -29.7780
   -29.7778 -29.7775 -29.7775 -29.7772 -29.7308 -29.7307 -29.7304 -29.7303
   -29.7303 -29.7303 -29.7297 -29.7296 -29.7293 -29.7292 -29.7290 -29.7289
   -28.3287 -28.3284 -28.3283 -28.3283 -28.3279 -28.3279 -28.3262 -28.3259
   -28.3257 -28.3255 -28.3254 -28.3251 -28.2868 -28.2866 -28.2864 -28.2864
   -28.2861 -28.2861 -28.2854 -28.2851 -28.2849 -28.2847 -28.2847 -28.2844
   -28.2637 -28.2637 -28.2633 -28.2633 -28.2633 -28.2632 -28.2627 -28.2627
   -28.2623 -28.2622 -28.2620 -28.2620  -7.4664  -7.4662  -7.4659  -7.4564
    -7.4562  -7.4560  -7.4471  -7.4469  -7.4467  -7.4421  -7.4419  -7.4416
    -7.4337  -7.4334  -7.4332  -7.4123  -7.4121  -7.4119  -7.4082  -7.4080
    -7.4078  -7.4043  -7.4041  -7.4038  -7.0396  -7.0394  -7.0391  -7.0203
    -7.0200  -7.0198  -7.0180  -7.0178  -7.0175  -6.9971  -6.9969  -6.9967
    -6.9899  -6.9897  -6.9894  -6.9605  -6.9603  -6.9600  -6.9415  -6.9413
    -6.9410  -6.9349  -6.9347  -6.9344  -6.9078  -6.9076  -6.9073  -6.8956
    -6.8954  -6.8952  -6.8464  -6.8462  -6.8460  -6.8438  -6.8436  -6.8434
    -3.3093  -3.3091  -3.2740  -3.2736  -3.2654  -3.2648  -3.1913  -3.1903
    -3.1825  -3.1816  -3.1446  -3.1435   0.5001   0.5245   0.5266   0.5703
     0.5959   0.5964   1.5198   1.5279   1.5608   1.6474   1.6620   1.6937
     3.6866   3.7082   3.7220   3.9032   3.9380   3.9771   4.1290   4.1599
     4.1958   4.3993   4.4336   4.4603   4.4829   4.4837   4.6136   4.6455
     4.6730   4.7323   5.3552   5.4592   5.4620   5.5450   5.6000   5.6437
     5.7100   5.7146   5.7871   5.8401   5.9683   6.0251

     occupation numbers 
     1.0000   1.0000   1.0000   1.0000   1.0000   1.0000   1.0000   1.0000
     1.0000   1.0000   1.0000   1.0000   1.0000   1.0000   1.0000   1.0000
     1.0000   1.0000   1.0000   1.0000   1.0000   1.0000   1.0000   1.0000
     1.0000   1.0000   1.0000   1.0000   1.0000   1.0000   1.0000   1.0000
     1.0000   1.0000   1.0000   1.0000   1.0000   1.0000   1.0000   1.0000
     1.0000   1.0000   1.0000   1.0000   1.0000   1.0000   1.0000   1.0000
     1.0000   1.0000   1.0000   1.0000   1.0000   1.0000   1.0000   1.0000
     1.0000   1.0000   1.0000   1.0000   1.0000   1.0000   1.0000   1.0000
     1.0000   1.0000   1.0000   1.0000   1.0000   1.0000   1.0000   1.0000
     1.0000   1.0000   1.0000   1.0000   1.0000   1.0000   1.0000   1.0000
     1.0000   1.0000   1.0000   1.0000   1.0000   1.0000   1.0000   1.0000
     1.0000   1.0000   1.0000   1.0000   1.0000   1.0000   1.0000   1.0000
     1.0000   1.0000   1.0000   1.0000   1.0000   1.0000   1.0000   1.0000
     1.0000   1.0000   1.0000   1.0000   1.0000   1.0000   1.0000   1.0000
     1.0000   1.0000   1.0000   1.0000   1.0000   1.0000   1.0000   1.0000
     1.0000   1.0000   1.0000   1.0000   1.0000   1.0000   1.0000   1.0000
     1.0000   1.0000   1.0000   1.0000   1.0000   1.0000   1.0000   1.0000
     1.0000   1.0000   1.0000   1.0000   1.0000   1.0000   1.0000   1.0000
     1.0000   1.0000   1.0000   1.0000   1.0000   1.0000   1.0000   1.0000
     1.0000   1.0000   1.0000   1.0000   1.0000   1.0000   1.0000   1.0000
     1.0000   1.0000   1.0000   1.0000   1.0000   1.0000   1.0000   1.0000
     1.0000   1.0000   1.0000   1.0000   1.0000   1.0000

          k =-0.2000-0.5004 0.0622 ( 79328 PWs)   bands (ev):

   -29.7805 -29.7802 -29.7801 -29.7801 -29.7798 -29.7798 -29.7783 -29.7780
   -29.7778 -29.7775 -29.7775 -29.7772 -29.7308 -29.7307 -29.7304 -29.7303
   -29.7303 -29.7303 -29.7297 -29.7296 -29.7293 -29.7292 -29.7290 -29.7289
   -28.3287 -28.3284 -28.3283 -28.3283 -28.3279 -28.3279 -28.3262 -28.3259
   -28.3257 -28.3255 -28.3254 -28.3251 -28.2868 -28.2866 -28.2864 -28.2864
   -28.2861 -28.2861 -28.2854 -28.2851 -28.2849 -28.2847 -28.2847 -28.2844
   -28.2637 -28.2637 -28.2633 -28.2633 -28.2633 -28.2632 -28.2627 -28.2627
   -28.2623 -28.2622 -28.2620 -28.2620  -7.4664  -7.4662  -7.4659  -7.4564
    -7.4562  -7.4560  -7.4471  -7.4469  -7.4467  -7.4421  -7.4419  -7.4416
    -7.4337  -7.4334  -7.4332  -7.4123  -7.4121  -7.4119  -7.4082  -7.4080
    -7.4078  -7.4043  -7.4041  -7.4038  -7.0396  -7.0394  -7.0391  -7.0203
    -7.0200  -7.0198  -7.0180  -7.0178  -7.0175  -6.9971  -6.9969  -6.9967
    -6.9899  -6.9897  -6.9894  -6.9605  -6.9603  -6.9600  -6.9415  -6.9413
    -6.9410  -6.9349  -6.9347  -6.9344  -6.9078  -6.9076  -6.9073  -6.8956
    -6.8954  -6.8952  -6.8464  -6.8462  -6.8460  -6.8438  -6.8436  -6.8434
    -3.3065  -3.3063  -3.2868  -3.2865  -3.2499  -3.2492  -3.2074  -3.2064
    -3.1690  -3.1679  -3.1475  -3.1464   0.5010   0.5198   0.5303   0.5717
     0.5892   0.6016   1.5134   1.5383   1.5567   1.6415   1.6734   1.6880
     3.6848   3.7125   3.7208   3.9210   3.9244   3.9722   4.1123   4.1823
     4.1867   4.3836   4.4539   4.4545   4.4938   4.5155   4.5435   4.5911
     4.7202   4.8156   5.2816   5.3355   5.5528   5.5611   5.6570   5.6693
     5.6696   5.7139   5.8173   5.8738   5.9407   5.9933

     occupation numbers 
     1.0000   1.0000   1.0000   1.0000   1.0000   1.0000   1.0000   1.0000
     1.0000   1.0000   1.0000   1.0000   1.0000   1.0000   1.0000   1.0000
     1.0000   1.0000   1.0000   1.0000   1.0000   1.0000   1.0000   1.0000
     1.0000   1.0000   1.0000   1.0000   1.0000   1.0000   1.0000   1.0000
     1.0000   1.0000   1.0000   1.0000   1.0000   1.0000   1.0000   1.0000
     1.0000   1.0000   1.0000   1.0000   1.0000   1.0000   1.0000   1.0000
     1.0000   1.0000   1.0000   1.0000   1.0000   1.0000   1.0000   1.0000
     1.0000   1.0000   1.0000   1.0000   1.0000   1.0000   1.0000   1.0000
     1.0000   1.0000   1.0000   1.0000   1.0000   1.0000   1.0000   1.0000
     1.0000   1.0000   1.0000   1.0000   1.0000   1.0000   1.0000   1.0000
     1.0000   1.0000   1.0000   1.0000   1.0000   1.0000   1.0000   1.0000
     1.0000   1.0000   1.0000   1.0000   1.0000   1.0000   1.0000   1.0000
     1.0000   1.0000   1.0000   1.0000   1.0000   1.0000   1.0000   1.0000
     1.0000   1.0000   1.0000   1.0000   1.0000   1.0000   1.0000   1.0000
     1.0000   1.0000   1.0000   1.0000   1.0000   1.0000   1.0000   1.0000
     1.0000   1.0000   1.0000   1.0000   1.0000   1.0000   1.0000   1.0000
     1.0000   1.0000   1.0000   1.0000   1.0000   1.0000   1.0000   1.0000
     1.0000   1.0000   1.0000   1.0000   1.0000   1.0000   1.0000   1.0000
     1.0000   1.0000   1.0000   1.0000   1.0000   1.0000   1.0000   1.0000
     1.0000   1.0000   1.0000   1.0000   1.0000   1.0000   1.0000   1.0000
     1.0000   1.0000   1.0000   1.0000   1.0000   1.0000   1.0000   1.0000
     1.0000   1.0000   1.0000   1.0000   1.0000   1.0000

          k =-0.2667-0.5389 0.0311 ( 79298 PWs)   bands (ev):

   -29.7805 -29.7801 -29.7800 -29.7800 -29.7797 -29.7796 -29.7782 -29.7779
   -29.7777 -29.7775 -29.7774 -29.7771 -29.7307 -29.7307 -29.7303 -29.7303
   -29.7303 -29.7303 -29.7297 -29.7296 -29.7293 -29.7292 -29.7290 -29.7289
   -28.3287 -28.3282 -28.3282 -28.3282 -28.3277 -28.3277 -28.3262 -28.3257
   -28.3257 -28.3254 -28.3252 -28.3250 -28.2869 -28.2866 -28.2864 -28.2864
   -28.2861 -28.2861 -28.2854 -28.2851 -28.2850 -28.2847 -28.2847 -28.2844
   -28.2637 -28.2636 -28.2633 -28.2632 -28.2632 -28.2632 -28.2627 -28.2626
   -28.2622 -28.2622 -28.2620 -28.2619  -7.4665  -7.4663  -7.4661  -7.4545
    -7.4543  -7.4540  -7.4504  -7.4501  -7.4499  -7.4459  -7.4457  -7.4454
    -7.4342  -7.4340  -7.4338  -7.4098  -7.4096  -7.4094  -7.4086  -7.4084
    -7.4081  -7.4035  -7.4033  -7.4030  -7.0424  -7.0421  -7.0419  -7.0218
    -7.0215  -7.0213  -7.0194  -7.0192  -7.0190  -6.9993  -6.9991  -6.9988
    -6.9895  -6.9893  -6.9890  -6.9575  -6.9573  -6.9571  -6.9413  -6.9411
    -6.9409  -6.9328  -6.9326  -6.9324  -6.9110  -6.9108  -6.9105  -6.8958
    -6.8956  -6.8954  -6.8460  -6.8458  -6.8456  -6.8429  -6.8428  -6.8426
    -3.1692  -3.1683  -3.1448  -3.1441  -3.1437  -3.1429  -3.0821  -3.0813
    -3.0802  -3.0794  -3.0560  -3.0538   0.4282   0.4352   0.4403   0.5202
     0.5278   0.5317   1.4430   1.4441   1.4552   1.6133   1.6187   1.6278
     3.4141   3.4237   3.4442   3.6950   3.6994   3.7063   3.7547   3.7781
     3.7892   4.0772   4.1140   4.1273   4.5994   4.6493   4.7898   4.8203
     4.8628   4.8972   5.3239   5.3536   5.4171   5.4465   5.4589   5.5521
     5.6310   5.6643   5.6868   5.7491   5.8764   5.9490

     occupation numbers 
     1.0000   1.0000   1.0000   1.0000   1.0000   1.0000   1.0000   1.0000
     1.0000   1.0000   1.0000   1.0000   1.0000   1.0000   1.0000   1.0000
     1.0000   1.0000   1.0000   1.0000   1.0000   1.0000   1.0000   1.0000
     1.0000   1.0000   1.0000   1.0000   1.0000   1.0000   1.0000   1.0000
     1.0000   1.0000   1.0000   1.0000   1.0000   1.0000   1.0000   1.0000
     1.0000   1.0000   1.0000   1.0000   1.0000   1.0000   1.0000   1.0000
     1.0000   1.0000   1.0000   1.0000   1.0000   1.0000   1.0000   1.0000
     1.0000   1.0000   1.0000   1.0000   1.0000   1.0000   1.0000   1.0000
     1.0000   1.0000   1.0000   1.0000   1.0000   1.0000   1.0000   1.0000
     1.0000   1.0000   1.0000   1.0000   1.0000   1.0000   1.0000   1.0000
     1.0000   1.0000   1.0000   1.0000   1.0000   1.0000   1.0000   1.0000
     1.0000   1.0000   1.0000   1.0000   1.0000   1.0000   1.0000   1.0000
     1.0000   1.0000   1.0000   1.0000   1.0000   1.0000   1.0000   1.0000
     1.0000   1.0000   1.0000   1.0000   1.0000   1.0000   1.0000   1.0000
     1.0000   1.0000   1.0000   1.0000   1.0000   1.0000   1.0000   1.0000
     1.0000   1.0000   1.0000   1.0000   1.0000   1.0000   1.0000   1.0000
     1.0000   1.0000   1.0000   1.0000   1.0000   1.0000   1.0000   1.0000
     1.0000   1.0000   1.0000   1.0000   1.0000   1.0000   1.0000   1.0000
     1.0000   1.0000   1.0000   1.0000   1.0000   1.0000   1.0000   1.0000
     1.0000   1.0000   1.0000   1.0000   1.0000   1.0000   1.0000   1.0000
     1.0000   1.0000   1.0000   1.0000   1.0000   1.0000   1.0000   1.0000
     1.0000   1.0000   1.0000   1.0000   1.0000   1.0000

          k =-0.2667-0.5389 0.0622 ( 79319 PWs)   bands (ev):

   -29.7805 -29.7801 -29.7800 -29.7800 -29.7797 -29.7796 -29.7782 -29.7779
   -29.7777 -29.7775 -29.7774 -29.7771 -29.7307 -29.7307 -29.7303 -29.7303
   -29.7303 -29.7303 -29.7297 -29.7296 -29.7293 -29.7292 -29.7290 -29.7289
   -28.3287 -28.3282 -28.3282 -28.3282 -28.3277 -28.3277 -28.3262 -28.3257
   -28.3257 -28.3254 -28.3252 -28.3250 -28.2869 -28.2866 -28.2864 -28.2864
   -28.2861 -28.2861 -28.2854 -28.2851 -28.2850 -28.2847 -28.2847 -28.2844
   -28.2637 -28.2636 -28.2633 -28.2632 -28.2632 -28.2632 -28.2627 -28.2626
   -28.2622 -28.2622 -28.2620 -28.2619  -7.4665  -7.4663  -7.4661  -7.4545
    -7.4543  -7.4540  -7.4504  -7.4501  -7.4499  -7.4459  -7.4457  -7.4454
    -7.4342  -7.4340  -7.4338  -7.4098  -7.4096  -7.4094  -7.4086  -7.4084
    -7.4081  -7.4035  -7.4033  -7.4030  -7.0424  -7.0421  -7.0419  -7.0218
    -7.0215  -7.0213  -7.0194  -7.0192  -7.0190  -6.9993  -6.9991  -6.9988
    -6.9895  -6.9893  -6.9890  -6.9575  -6.9573  -6.9571  -6.9413  -6.9411
    -6.9409  -6.9328  -6.9326  -6.9324  -6.9110  -6.9108  -6.9105  -6.8958
    -6.8956  -6.8954  -6.8460  -6.8458  -6.8456  -6.8429  -6.8428  -6.8426
    -3.1680  -3.1671  -3.1529  -3.1518  -3.1358  -3.1346  -3.0905  -3.0887
    -3.0730  -3.0711  -3.0572  -3.0551   0.4275   0.4378   0.4383   0.5199
     0.5294   0.5305   1.4409   1.4471   1.4544   1.6117   1.6222   1.6259
     3.4172   3.4195   3.4456   3.6940   3.6989   3.7110   3.7487   3.7808
     3.7888   4.0741   4.1172   4.1254   4.6227   4.6688   4.7196   4.7827
     4.8781   4.9732   5.2936   5.3875   5.3939   5.4043   5.5207   5.5315
     5.5829   5.6554   5.7097   5.7863   5.8716   5.9486

     occupation numbers 
     1.0000   1.0000   1.0000   1.0000   1.0000   1.0000   1.0000   1.0000
     1.0000   1.0000   1.0000   1.0000   1.0000   1.0000   1.0000   1.0000
     1.0000   1.0000   1.0000   1.0000   1.0000   1.0000   1.0000   1.0000
     1.0000   1.0000   1.0000   1.0000   1.0000   1.0000   1.0000   1.0000
     1.0000   1.0000   1.0000   1.0000   1.0000   1.0000   1.0000   1.0000
     1.0000   1.0000   1.0000   1.0000   1.0000   1.0000   1.0000   1.0000
     1.0000   1.0000   1.0000   1.0000   1.0000   1.0000   1.0000   1.0000
     1.0000   1.0000   1.0000   1.0000   1.0000   1.0000   1.0000   1.0000
     1.0000   1.0000   1.0000   1.0000   1.0000   1.0000   1.0000   1.0000
     1.0000   1.0000   1.0000   1.0000   1.0000   1.0000   1.0000   1.0000
     1.0000   1.0000   1.0000   1.0000   1.0000   1.0000   1.0000   1.0000
     1.0000   1.0000   1.0000   1.0000   1.0000   1.0000   1.0000   1.0000
     1.0000   1.0000   1.0000   1.0000   1.0000   1.0000   1.0000   1.0000
     1.0000   1.0000   1.0000   1.0000   1.0000   1.0000   1.0000   1.0000
     1.0000   1.0000   1.0000   1.0000   1.0000   1.0000   1.0000   1.0000
     1.0000   1.0000   1.0000   1.0000   1.0000   1.0000   1.0000   1.0000
     1.0000   1.0000   1.0000   1.0000   1.0000   1.0000   1.0000   1.0000
     1.0000   1.0000   1.0000   1.0000   1.0000   1.0000   1.0000   1.0000
     1.0000   1.0000   1.0000   1.0000   1.0000   1.0000   1.0000   1.0000
     1.0000   1.0000   1.0000   1.0000   1.0000   1.0000   1.0000   1.0000
     1.0000   1.0000   1.0000   1.0000   1.0000   1.0000   1.0000   1.0000
     1.0000   1.0000   1.0000   1.0000   1.0000   1.0000

     highest occupied level (ev):     7.7400

!    total energy              =   -1833.18181020 Ry
     Harris-Foulkes estimate   =   -1833.18181020 Ry
     estimated scf accuracy    <          9.3E-11 Ry

     The total energy is the sum of the following terms:

     one-electron contribution =   -1114.54405085 Ry
     hartree contribution      =     623.56560275 Ry
     xc contribution           =    -215.54917110 Ry
     ewald contribution        =   -1126.65419100 Ry

     convergence has been achieved in  14 iterations

     Writing output data file GaTegamma.save
 
     init_run     :    142.47s CPU    148.91s WALL (       1 calls)
     electrons    :   6418.31s CPU   6699.72s WALL (       1 calls)

     Called by init_run:
     wfcinit      :    141.49s CPU    147.64s WALL (       1 calls)
     wfcinit:atom :      0.60s CPU      0.90s WALL (     119 calls)
     wfcinit:wfcr :    137.65s CPU    143.04s WALL (     119 calls)
     potinit      :      0.19s CPU      0.19s WALL (       1 calls)

     Called by electrons:
     c_bands      :   5801.79s CPU   6062.74s WALL (      15 calls)
     sum_band     :    615.76s CPU    635.95s WALL (      15 calls)
     v_of_rho     :      0.36s CPU      0.40s WALL (      15 calls)
     v_h          :      0.03s CPU      0.03s WALL (      15 calls)
     v_xc         :      0.33s CPU      0.37s WALL (      15 calls)
     mix_rho      :      0.27s CPU      0.37s WALL (      15 calls)

     Called by c_bands:
     init_us_2    :     13.96s CPU     14.75s WALL (    3689 calls)
     cegterg      :   5461.90s CPU   5719.97s WALL (    1785 calls)

     Called by sum_band:

     Called by *egterg:
     h_psi        :   3797.45s CPU   3927.11s WALL (    8467 calls)
     g_psi        :     16.25s CPU     16.30s WALL (    6563 calls)
     cdiaghg      :    619.48s CPU    681.04s WALL (    8229 calls)
     cegterg:over :    454.92s CPU    467.34s WALL (    6563 calls)
     cegterg:upda :    367.02s CPU    389.55s WALL (    6563 calls)
     cegterg:last :    181.46s CPU    186.27s WALL (    1785 calls)
     cdiaghg:chol :     39.69s CPU     39.80s WALL (    8229 calls)
     cdiaghg:inve :     29.25s CPU     29.24s WALL (    8229 calls)
     cdiaghg:para :    106.68s CPU    156.02s WALL (   16458 calls)

     Called by h_psi:
     h_psi:pot    :   3773.22s CPU   3902.84s WALL (    8467 calls)
     h_psi:calbec :    406.25s CPU    416.15s WALL (    8467 calls)
     vloc_psi     :   2964.90s CPU   3073.16s WALL (    8467 calls)
     add_vuspsi   :    402.04s CPU    413.48s WALL (    8467 calls)

     General routines
     calbec       :    406.23s CPU    416.13s WALL (    8467 calls)
     fft          :      0.41s CPU      0.44s WALL (     256 calls)
     fftw         :   3355.21s CPU   3480.07s WALL ( 3857752 calls)
     davcio       :      0.03s CPU    143.09s WALL (     119 calls)
 
     Parallel routines
     fft_scatter  :   2537.61s CPU   2583.06s WALL ( 3858008 calls)
 
     PWSCF        :     1h50m CPU        1h57m WALL

 
   This run was terminated on:   2: 6: 6   7Apr2022            

=------------------------------------------------------------------------------=
   JOB DONE.
=------------------------------------------------------------------------------=
