
     Program BANDS v.6.1 (svn rev. 13369) starts on  7Apr2022 at 15:30:38 

     This program is part of the open-source Quantum ESPRESSO suite
     for quantum simulation of materials; please cite
         "P. Giannozzi et al., J. Phys.:Condens. Matter 21 395502 (2009);
          URL http://www.quantum-espresso.org", 
     in publications or presentations arising from this work. More details at
     http://www.quantum-espresso.org/quote

     Parallel version (MPI), running on    48 processors
     R & G space division:  proc/nbgrp/npool/nimage =      48

     Reading data from directory:
     /share/inl/marcel/TB-SO/InSegamma_outdir/InSegamma.save

   Info: using nr1, nr2, nr3 values from input

   Info: using nr1, nr2, nr3 values from input

     IMPORTANT: XC functional enforced from input :
     Exchange-correlation      = SLA+PW+PSX+PSC ( 1  4 10  8 0 0)
     Any further DFT definition will be discarded
     Please, verify this is what you really want

 
     Parallelization info
     --------------------
     sticks:   dense  smooth     PW     G-vecs:    dense   smooth      PW
     Min          49      49     13                12411    12411    1751
     Max          50      50     14                12448    12448    1792
     Sum        2395    2395    649               596901   596901   85191
 
     high-symmetry point:  0.0000 0.0000 0.0792   x coordinate   0.0000
     high-symmetry point:  0.0000 0.5774 0.0792   x coordinate   0.5774
     high-symmetry point:  0.3333 0.5773 0.0792   x coordinate   0.9107
     high-symmetry point:  0.0000 0.0000 0.0792   x coordinate   1.5773
     high-symmetry point:  0.0000 0.0000 0.0000   x coordinate   1.6565
     high-symmetry point:  0.0000 0.5774-0.0000   x coordinate   2.2339
     high-symmetry point:  0.3333 0.5773-0.0000   x coordinate   2.5672
     high-symmetry point:  0.0000 0.0000 0.0000   x coordinate   3.2339
     high-symmetry point:  0.0000 0.5774 0.0792   x coordinate   3.2339
     high-symmetry point:  0.0000 0.5774-0.0000   x coordinate   3.3130
     high-symmetry point:  0.3333 0.5773 0.0792   x coordinate   3.3130
     high-symmetry point:  0.3333 0.5773-0.0000   x coordinate   3.3922

     Plottable bands (eV) written to file InSegamma.bands.dat.gnu
     Bands written to file InSegamma.bands.dat

 **************************************************************************

                    xk=(   0.00000,   0.00000,   0.07917  )

     double point group C_3v (3m)  
     there are  6 classes and  3 irreducible representations
     the character table:

       E     -E    2C3   -2C3  3s_v  -3s_v
                                          
G_4    2.00 -2.00  1.00 -1.00  0.00  0.00
G_5    1.00 -1.00 -1.00  1.00  0.00  0.00
G_6    1.00 -1.00 -1.00  1.00  0.00  0.00

     imaginary part

       E     -E    2C3   -2C3  3s_v  -3s_v
                                          
G_4    0.00  0.00  0.00  0.00  0.00  0.00
G_5    0.00  0.00  0.00  0.00  1.00 -1.00
G_6    0.00  0.00  0.00  0.00 -1.00  1.00

     the symmetry operations in each class and the name of the first element:

     E             1
                                                                 
     -E           -1
                                                                 
     2C3           2    3
                                                                 
     -2C3         -2   -3
                                                                 
     3s_v          4   -5   -6
                                                                 
     3s_v          5    6   -4
                                                                 

     Band symmetry, C_3v (3m)   double point group:

     e(  1 -  2) =     -8.33211  eV     2   --> G_4   L_6      
     e(  3 -  6) =     -8.33180  eV     4   -->   2 G_4   L_6      
     e(  7 -  8) =     -8.25919  eV     2   --> G_5   L_4      
     e(  7 -  8) =     -8.25919  eV     2   --> G_6   L_5      
     e(  9 - 12) =     -8.25890  eV     4   -->   2 G_5   L_4      
     e(  9 - 12) =     -8.25890  eV     4   -->   2 G_6   L_5      
     e( 13 - 14) =     -8.24277  eV     2   --> G_5   L_4      
     e( 13 - 14) =     -8.24277  eV     2   --> G_6   L_5      
     e( 15 - 18) =     -8.24248  eV     4   -->   2 G_5   L_4      
     e( 15 - 18) =     -8.24248  eV     4   -->   2 G_6   L_5      
     e( 19 - 20) =     -8.23117  eV     2   --> G_4   L_6      
     e( 21 - 22) =     -8.23085  eV     2   --> G_4   L_6      
     e( 23 - 24) =     -8.23074  eV     2   --> G_4   L_6      
     e( 25 - 26) =     -7.49050  eV     2   --> G_4   L_6      
     e( 27 - 28) =     -7.49028  eV     2   --> G_4   L_6      
     e( 29 - 30) =     -7.48933  eV     2   --> G_4   L_6      
     e( 31 - 32) =     -7.45796  eV     2   --> G_5   L_4      
     e( 31 - 32) =     -7.45796  eV     2   --> G_6   L_5      
     e( 33 - 36) =     -7.45767  eV     4   -->   2 G_5   L_4      
     e( 33 - 36) =     -7.45767  eV     4   -->   2 G_6   L_5      
     e( 37 - 38) =     -7.43503  eV     2   --> G_4   L_6      
     e( 39 - 40) =     -7.43427  eV     2   --> G_4   L_6      
     e( 41 - 42) =     -7.43409  eV     2   --> G_4   L_6      
     e( 43 - 44) =     -7.37624  eV     2   --> G_4   L_6      
     e( 45 - 46) =     -7.37599  eV     2   --> G_4   L_6      
     e( 47 - 48) =     -7.37577  eV     2   --> G_4   L_6      
     e( 49 - 50) =     -7.34130  eV     2   --> G_4   L_6      
     e( 51 - 52) =     -7.33025  eV     2   --> G_4   L_6      
     e( 53 - 54) =     -7.33005  eV     2   --> G_4   L_6      
     e( 55 - 56) =     -7.27350  eV     2   --> G_5   L_4      
     e( 55 - 56) =     -7.27350  eV     2   --> G_6   L_5      
     e( 57 - 60) =     -7.27324  eV     4   -->   2 G_5   L_4      
     e( 57 - 60) =     -7.27324  eV     4   -->   2 G_6   L_5      
     e( 61 - 64) =     -6.81904  eV     4   -->   2 G_4   L_6      
     e( 65 - 66) =     -6.68911  eV     2   --> G_4   L_6      
     e( 67 - 68) =     -6.59418  eV     2   --> G_4   L_6      
     e( 69 - 72) =     -6.46316  eV     4   -->   2 G_4   L_6      
     e( 73 - 74) =      0.32840  eV     2   --> G_4   L_6      
     e( 75 - 76) =      0.32857  eV     2   --> G_4   L_6      
     e( 77 - 78) =      0.59159  eV     2   --> G_4   L_6      
     e( 79 - 80) =      2.26793  eV     2   --> G_4   L_6      
     e( 81 - 84) =      2.89130  eV     4   -->   2 G_4   L_6      
     e( 85 - 88) =      5.10052  eV     4   -->   2 G_4   L_6      
     e( 89 - 90) =      5.12791  eV     2   --> G_4   L_6      
     e( 91 - 94) =      5.25950  eV     4   -->   2 G_4   L_6      
     e( 95 - 96) =      5.33447  eV     2   --> G_4   L_6      
     e( 97 - 98) =      5.41574  eV     2   --> G_5   L_4      
     e( 97 - 98) =      5.41574  eV     2   --> G_6   L_5      
     e( 99 -100) =      5.46023  eV     2   --> G_5   L_4      
     e( 99 -100) =      5.46023  eV     2   --> G_6   L_5      
     e(101 -102) =      5.46269  eV     2   --> G_5   L_4      
     e(101 -102) =      5.46269  eV     2   --> G_6   L_5      
     e(103 -106) =      5.47900  eV     4   -->   2 G_4   L_6      
     e(107 -108) =      5.60788  eV     2   --> G_5   L_4      
     e(107 -108) =      5.60788  eV     2   --> G_6   L_5      
     e(109 -110) =      5.61050  eV     2   --> G_5   L_4      
     e(109 -110) =      5.61050  eV     2   --> G_6   L_5      
     e(111 -112) =      5.66020  eV     2   --> G_5   L_4      
     e(111 -112) =      5.66020  eV     2   --> G_6   L_5      
     e(113 -114) =      6.60069  eV     2   --> G_4   L_6      
     e(115 -116) =      6.91236  eV     2   --> G_4   L_6      
     e(117 -118) =      7.97491  eV     2   --> G_4   L_6      
     e(119 -120) =      7.97506  eV     2   --> G_4   L_6      

 **************************************************************************

 **************************************************************************

                    xk=(   0.00000,   0.02138,   0.07917  )

     double point group C_s (m)    
     there are  4 classes and  2 irreducible representations
     the character table:

       E     -E    s     -s   
                              
G_3    1.00 -1.00  0.00  0.00
G_4    1.00 -1.00  0.00  0.00

     imaginary part

       E     -E    s     -s   
                              
G_3    0.00  0.00  1.00 -1.00
G_4    0.00  0.00 -1.00  1.00

     the symmetry operations in each class and the name of the first element:

     E             1
                                                                 
     -E           -1
                                                                 
     s             2
                                                                 
     -s           -2
                                                                 

     Band symmetry, C_s (m)     double point group:

     e(  1 -  2) =     -8.33234  eV     2   --> G_3            
     e(  1 -  2) =     -8.33234  eV     2   --> G_4            
     e(  3 -  6) =     -8.33203  eV     4   -->   2 G_3            
     e(  3 -  6) =     -8.33203  eV     4   -->   2 G_4            
     e(  7 -  8) =     -8.25943  eV     2   --> G_3            
     e(  7 -  8) =     -8.25943  eV     2   --> G_4            
     e(  9 - 12) =     -8.25913  eV     4   -->   2 G_3            
     e(  9 - 12) =     -8.25913  eV     4   -->   2 G_4            
     e( 13 - 14) =     -8.24323  eV     2   --> G_3            
     e( 13 - 14) =     -8.24323  eV     2   --> G_4            
     e( 15 - 18) =     -8.24294  eV     4   -->   2 G_3            
     e( 15 - 18) =     -8.24294  eV     4   -->   2 G_4            
     e( 19 - 20) =     -8.23097  eV     2   --> G_3            
     e( 19 - 20) =     -8.23097  eV     2   --> G_4            
     e( 21 - 24) =     -8.23066  eV     4   -->   2 G_3            
     e( 21 - 24) =     -8.23066  eV     4   -->   2 G_4            
     e( 25 - 26) =     -7.49256  eV     2   --> G_3            
     e( 25 - 26) =     -7.49256  eV     2   --> G_4            
     e( 27 - 28) =     -7.49232  eV     2   --> G_3            
     e( 27 - 28) =     -7.49232  eV     2   --> G_4            
     e( 29 - 29) =     -7.49180  eV     1   --> G_3            
     e( 30 - 30) =     -7.49153  eV     1   --> G_4            
     e( 31 - 32) =     -7.45856  eV     2   --> G_3            
     e( 31 - 32) =     -7.45856  eV     2   --> G_4            
     e( 33 - 36) =     -7.45827  eV     4   -->   2 G_3            
     e( 33 - 36) =     -7.45827  eV     4   -->   2 G_4            
     e( 37 - 38) =     -7.43474  eV     2   --> G_3            
     e( 37 - 38) =     -7.43474  eV     2   --> G_4            
     e( 39 - 40) =     -7.43418  eV     2   --> G_3            
     e( 39 - 40) =     -7.43418  eV     2   --> G_4            
     e( 41 - 42) =     -7.43401  eV     2   --> G_3            
     e( 41 - 42) =     -7.43401  eV     2   --> G_4            
     e( 43 - 44) =     -7.37652  eV     2   --> G_3            
     e( 43 - 44) =     -7.37652  eV     2   --> G_4            
     e( 45 - 48) =     -7.37623  eV     4   -->   2 G_3            
     e( 45 - 48) =     -7.37623  eV     4   -->   2 G_4            
     e( 49 - 50) =     -7.34037  eV     2   --> G_3            
     e( 49 - 50) =     -7.34037  eV     2   --> G_4            
     e( 51 - 52) =     -7.32983  eV     2   --> G_3            
     e( 51 - 52) =     -7.32983  eV     2   --> G_4            
     e( 53 - 54) =     -7.32951  eV     2   --> G_3            
     e( 53 - 54) =     -7.32951  eV     2   --> G_4            
     e( 55 - 56) =     -7.27321  eV     2   --> G_3            
     e( 55 - 56) =     -7.27321  eV     2   --> G_4            
     e( 57 - 60) =     -7.27295  eV     4   -->   2 G_3            
     e( 57 - 60) =     -7.27295  eV     4   -->   2 G_4            
     e( 61 - 61) =     -6.81487  eV     1   --> G_4            
     e( 62 - 63) =     -6.81474  eV     2   --> G_3            
     e( 62 - 63) =     -6.81474  eV     2   --> G_4            
     e( 64 - 64) =     -6.81458  eV     1   --> G_3            
     e( 65 - 65) =     -6.68559  eV     1   --> G_4            
     e( 66 - 66) =     -6.68536  eV     1   --> G_3            
     e( 67 - 67) =     -6.59025  eV     1   --> G_3            
     e( 68 - 68) =     -6.59007  eV     1   --> G_4            
     e( 69 - 72) =     -6.45965  eV     4   -->   2 G_3            
     e( 69 - 72) =     -6.45965  eV     4   -->   2 G_4            
     e( 73 - 74) =      0.33071  eV     2   --> G_3            
     e( 73 - 74) =      0.33071  eV     2   --> G_4            
     e( 75 - 76) =      0.33088  eV     2   --> G_3            
     e( 75 - 76) =      0.33088  eV     2   --> G_4            
     e( 77 - 78) =      0.59287  eV     2   --> G_3            
     e( 77 - 78) =      0.59287  eV     2   --> G_4            
     e( 79 - 80) =      2.26968  eV     2   --> G_3            
     e( 79 - 80) =      2.26968  eV     2   --> G_4            
     e( 81 - 84) =      2.88872  eV     4   -->   2 G_3            
     e( 81 - 84) =      2.88872  eV     4   -->   2 G_4            
     e( 85 - 85) =      5.08273  eV     1   --> G_4            
     e( 86 - 86) =      5.08324  eV     1   --> G_4            
     e( 87 - 87) =      5.08368  eV     1   --> G_3            
     e( 88 - 88) =      5.08449  eV     1   --> G_3            
     e( 89 - 89) =      5.11565  eV     1   --> G_3            
     e( 90 - 90) =      5.11588  eV     1   --> G_4            
     e( 91 - 91) =      5.23653  eV     1   --> G_3            
     e( 92 - 92) =      5.23676  eV     1   --> G_3            
     e( 93 - 93) =      5.23849  eV     1   --> G_4            
     e( 94 - 94) =      5.23873  eV     1   --> G_4            
     e( 95 - 95) =      5.31212  eV     1   --> G_3            
     e( 96 - 96) =      5.31354  eV     1   --> G_4            
     e( 97 - 97) =      5.40385  eV     1   --> G_3            
     e( 98 - 98) =      5.40402  eV     1   --> G_4            
     e( 99 - 99) =      5.44380  eV     1   --> G_3            
     e(100 -100) =      5.44504  eV     1   --> G_4            
     e(101 -101) =      5.44718  eV     1   --> G_4            
     e(102 -102) =      5.44836  eV     1   --> G_3            
     e(103 -103) =      5.47082  eV     1   --> G_4            
     e(104 -104) =      5.47232  eV     1   --> G_3            
     e(105 -105) =      5.47332  eV     1   --> G_3            
     e(106 -106) =      5.47348  eV     1   --> G_4            
     e(107 -107) =      5.62369  eV     1   --> G_3            
     e(108 -108) =      5.62461  eV     1   --> G_4            
     e(109 -109) =      5.62567  eV     1   --> G_4            
     e(110 -110) =      5.62656  eV     1   --> G_3            
     e(111 -111) =      5.63582  eV     1   --> G_4            
     e(112 -112) =      5.63602  eV     1   --> G_3            
     e(113 -113) =      6.59263  eV     1   --> G_4            
     e(114 -114) =      6.60167  eV     1   --> G_3            
     e(115 -115) =      6.94864  eV     1   --> G_3            
     e(116 -116) =      6.95674  eV     1   --> G_4            
     e(117 -117) =      7.98855  eV     1   --> G_4            
     e(118 -118) =      7.98920  eV     1   --> G_4            
     e(119 -119) =      7.99036  eV     1   --> G_3            
     e(120 -120) =      7.99056  eV     1   --> G_3            

 **************************************************************************

 **************************************************************************

                    xk=(   0.00000,   0.04277,   0.07917  )

     Band symmetry, C_s (m)     double point group:

     e(  1 -  2) =     -8.33299  eV     2   --> G_3            
     e(  1 -  2) =     -8.33299  eV     2   --> G_4            
     e(  3 -  6) =     -8.33266  eV     4   -->   2 G_3            
     e(  3 -  6) =     -8.33266  eV     4   -->   2 G_4            
     e(  7 -  8) =     -8.26016  eV     2   --> G_3            
     e(  7 -  8) =     -8.26016  eV     2   --> G_4            
     e(  9 - 12) =     -8.25987  eV     4   -->   2 G_3            
     e(  9 - 12) =     -8.25987  eV     4   -->   2 G_4            
     e( 13 - 14) =     -8.24450  eV     2   --> G_3            
     e( 13 - 14) =     -8.24450  eV     2   --> G_4            
     e( 15 - 18) =     -8.24423  eV     4   -->   2 G_3            
     e( 15 - 18) =     -8.24423  eV     4   -->   2 G_4            
     e( 19 - 20) =     -8.23047  eV     2   --> G_3            
     e( 19 - 20) =     -8.23047  eV     2   --> G_4            
     e( 21 - 24) =     -8.23018  eV     4   -->   2 G_3            
     e( 21 - 24) =     -8.23018  eV     4   -->   2 G_4            
     e( 25 - 25) =     -7.49867  eV     1   --> G_3            
     e( 26 - 27) =     -7.49839  eV     2   --> G_3            
     e( 26 - 27) =     -7.49839  eV     2   --> G_4            
     e( 28 - 29) =     -7.49808  eV     2   --> G_3            
     e( 28 - 29) =     -7.49808  eV     2   --> G_4            
     e( 30 - 30) =     -7.49793  eV     1   --> G_4            
     e( 31 - 32) =     -7.46018  eV     2   --> G_3            
     e( 31 - 32) =     -7.46018  eV     2   --> G_4            
     e( 33 - 34) =     -7.45986  eV     2   --> G_3            
     e( 33 - 34) =     -7.45986  eV     2   --> G_4            
     e( 35 - 36) =     -7.45964  eV     2   --> G_3            
     e( 35 - 36) =     -7.45964  eV     2   --> G_4            
     e( 37 - 38) =     -7.43430  eV     2   --> G_3            
     e( 37 - 38) =     -7.43430  eV     2   --> G_4            
     e( 39 - 40) =     -7.43404  eV     2   --> G_3            
     e( 39 - 40) =     -7.43404  eV     2   --> G_4            
     e( 41 - 42) =     -7.43390  eV     2   --> G_3            
     e( 41 - 42) =     -7.43390  eV     2   --> G_4            
     e( 43 - 43) =     -7.37741  eV     1   --> G_4            
     e( 44 - 44) =     -7.37727  eV     1   --> G_3            
     e( 45 - 46) =     -7.37696  eV     2   --> G_3            
     e( 45 - 46) =     -7.37696  eV     2   --> G_4            
     e( 47 - 48) =     -7.37679  eV     2   --> G_3            
     e( 47 - 48) =     -7.37679  eV     2   --> G_4            
     e( 49 - 49) =     -7.33796  eV     1   --> G_4            
     e( 50 - 50) =     -7.33784  eV     1   --> G_3            
     e( 51 - 52) =     -7.32887  eV     2   --> G_3            
     e( 51 - 52) =     -7.32887  eV     2   --> G_4            
     e( 53 - 54) =     -7.32796  eV     2   --> G_3            
     e( 53 - 54) =     -7.32796  eV     2   --> G_4            
     e( 55 - 56) =     -7.27234  eV     2   --> G_3            
     e( 55 - 56) =     -7.27234  eV     2   --> G_4            
     e( 57 - 58) =     -7.27206  eV     2   --> G_3            
     e( 57 - 58) =     -7.27206  eV     2   --> G_4            
     e( 59 - 60) =     -7.27192  eV     2   --> G_3            
     e( 59 - 60) =     -7.27192  eV     2   --> G_4            
     e( 61 - 61) =     -6.80239  eV     1   --> G_4            
     e( 62 - 62) =     -6.80214  eV     1   --> G_3            
     e( 63 - 63) =     -6.80176  eV     1   --> G_4            
     e( 64 - 64) =     -6.80153  eV     1   --> G_3            
     e( 65 - 65) =     -6.67481  eV     1   --> G_4            
     e( 66 - 66) =     -6.67438  eV     1   --> G_3            
     e( 67 - 67) =     -6.57840  eV     1   --> G_3            
     e( 68 - 68) =     -6.57806  eV     1   --> G_4            
     e( 69 - 69) =     -6.44917  eV     1   --> G_3            
     e( 70 - 70) =     -6.44905  eV     1   --> G_4            
     e( 71 - 71) =     -6.44887  eV     1   --> G_3            
     e( 72 - 72) =     -6.44875  eV     1   --> G_4            
     e( 73 - 74) =      0.33759  eV     2   --> G_3            
     e( 73 - 74) =      0.33759  eV     2   --> G_4            
     e( 75 - 76) =      0.33778  eV     2   --> G_3            
     e( 75 - 76) =      0.33778  eV     2   --> G_4            
     e( 77 - 78) =      0.59669  eV     2   --> G_3            
     e( 77 - 78) =      0.59669  eV     2   --> G_4            
     e( 79 - 80) =      2.27487  eV     2   --> G_3            
     e( 79 - 80) =      2.27487  eV     2   --> G_4            
     e( 81 - 82) =      2.88063  eV     2   --> G_3            
     e( 81 - 82) =      2.88063  eV     2   --> G_4            
     e( 83 - 83) =      2.88104  eV     1   --> G_4            
     e( 84 - 84) =      2.88118  eV     1   --> G_3            
     e( 85 - 85) =      5.02581  eV     1   --> G_4            
     e( 86 - 86) =      5.02692  eV     1   --> G_3            
     e( 87 - 87) =      5.03025  eV     1   --> G_4            
     e( 88 - 88) =      5.03263  eV     1   --> G_3            
     e( 89 - 89) =      5.07740  eV     1   --> G_3            
     e( 90 - 90) =      5.07793  eV     1   --> G_4            
     e( 91 - 91) =      5.17795  eV     1   --> G_3            
     e( 92 - 92) =      5.18107  eV     1   --> G_4            
     e( 93 - 93) =      5.18210  eV     1   --> G_3            
     e( 94 - 94) =      5.18505  eV     1   --> G_4            
     e( 95 - 95) =      5.24332  eV     1   --> G_3            
     e( 96 - 96) =      5.24566  eV     1   --> G_4            
     e( 97 - 97) =      5.36970  eV     1   --> G_3            
     e( 98 - 98) =      5.37057  eV     1   --> G_4            
     e( 99 - 99) =      5.40708  eV     1   --> G_3            
     e(100 -100) =      5.40778  eV     1   --> G_4            
     e(101 -101) =      5.41705  eV     1   --> G_4            
     e(102 -102) =      5.41770  eV     1   --> G_3            
     e(103 -103) =      5.45000  eV     1   --> G_4            
     e(104 -104) =      5.45174  eV     1   --> G_3            
     e(105 -106) =      5.45460  eV     2   --> G_3            
     e(105 -106) =      5.45460  eV     2   --> G_4            
     e(107 -107) =      5.58017  eV     1   --> G_4            
     e(108 -108) =      5.58130  eV     1   --> G_3            
     e(109 -109) =      5.65609  eV     1   --> G_3            
     e(110 -110) =      5.65697  eV     1   --> G_4            
     e(111 -111) =      5.66003  eV     1   --> G_4            
     e(112 -112) =      5.66078  eV     1   --> G_3            
     e(113 -113) =      6.58211  eV     1   --> G_4            
     e(114 -114) =      6.59464  eV     1   --> G_3            
     e(115 -115) =      7.05384  eV     1   --> G_3            
     e(116 -116) =      7.06502  eV     1   --> G_4            
     e(117 -117) =      8.02804  eV     1   --> G_4            
     e(118 -118) =      8.03195  eV     1   --> G_4            
     e(119 -119) =      8.03217  eV     1   --> G_3            
     e(120 -120) =      8.03402  eV     1   --> G_3            

 **************************************************************************

 **************************************************************************

                    xk=(   0.00000,   0.06415,   0.07917  )

     Band symmetry, C_s (m)     double point group:

     e(  1 -  1) =     -8.33407  eV     1   --> G_4            
     e(  2 -  2) =     -8.33392  eV     1   --> G_3            
     e(  3 -  3) =     -8.33371  eV     1   --> G_4            
     e(  4 -  6) =     -8.33361  eV     3   -->   2 G_3            
     e(  4 -  6) =     -8.33361  eV     3   --> G_4            
     e(  7 -  8) =     -8.26135  eV     2   --> G_3            
     e(  7 -  8) =     -8.26135  eV     2   --> G_4            
     e(  9 - 10) =     -8.26107  eV     2   --> G_3            
     e(  9 - 10) =     -8.26107  eV     2   --> G_4            
     e( 11 - 12) =     -8.26093  eV     2   --> G_3            
     e( 11 - 12) =     -8.26093  eV     2   --> G_4            
     e( 13 - 14) =     -8.24643  eV     2   --> G_3            
     e( 13 - 14) =     -8.24643  eV     2   --> G_4            
     e( 15 - 16) =     -8.24615  eV     2   --> G_3            
     e( 15 - 16) =     -8.24615  eV     2   --> G_4            
     e( 17 - 18) =     -8.24596  eV     2   --> G_3            
     e( 17 - 18) =     -8.24596  eV     2   --> G_4            
     e( 19 - 20) =     -8.22990  eV     2   --> G_3            
     e( 19 - 20) =     -8.22990  eV     2   --> G_4            
     e( 21 - 24) =     -8.22962  eV     4   -->   2 G_3            
     e( 21 - 24) =     -8.22962  eV     4   -->   2 G_4            
     e( 25 - 25) =     -7.50865  eV     1   --> G_3            
     e( 26 - 26) =     -7.50800  eV     1   --> G_4            
     e( 27 - 27) =     -7.50760  eV     1   --> G_3            
     e( 28 - 28) =     -7.50737  eV     1   --> G_4            
     e( 29 - 29) =     -7.50679  eV     1   --> G_3            
     e( 30 - 30) =     -7.50664  eV     1   --> G_4            
     e( 31 - 32) =     -7.46253  eV     2   --> G_3            
     e( 31 - 32) =     -7.46253  eV     2   --> G_4            
     e( 33 - 34) =     -7.46198  eV     2   --> G_3            
     e( 33 - 34) =     -7.46198  eV     2   --> G_4            
     e( 35 - 36) =     -7.46180  eV     2   --> G_3            
     e( 35 - 36) =     -7.46180  eV     2   --> G_4            
     e( 37 - 38) =     -7.43467  eV     2   --> G_3            
     e( 37 - 38) =     -7.43467  eV     2   --> G_4            
     e( 39 - 40) =     -7.43423  eV     2   --> G_3            
     e( 39 - 40) =     -7.43423  eV     2   --> G_4            
     e( 41 - 42) =     -7.43394  eV     2   --> G_3            
     e( 41 - 42) =     -7.43394  eV     2   --> G_4            
     e( 43 - 43) =     -7.37850  eV     1   --> G_4            
     e( 44 - 44) =     -7.37829  eV     1   --> G_3            
     e( 45 - 46) =     -7.37767  eV     2   --> G_3            
     e( 45 - 46) =     -7.37767  eV     2   --> G_4            
     e( 47 - 48) =     -7.37740  eV     2   --> G_3            
     e( 47 - 48) =     -7.37740  eV     2   --> G_4            
     e( 49 - 49) =     -7.33492  eV     1   --> G_4            
     e( 50 - 50) =     -7.33477  eV     1   --> G_3            
     e( 51 - 52) =     -7.32766  eV     2   --> G_3            
     e( 51 - 52) =     -7.32766  eV     2   --> G_4            
     e( 53 - 54) =     -7.32601  eV     2   --> G_3            
     e( 53 - 54) =     -7.32601  eV     2   --> G_4            
     e( 55 - 56) =     -7.27084  eV     2   --> G_3            
     e( 55 - 56) =     -7.27084  eV     2   --> G_4            
     e( 57 - 58) =     -7.27053  eV     2   --> G_3            
     e( 57 - 58) =     -7.27053  eV     2   --> G_4            
     e( 59 - 60) =     -7.27033  eV     2   --> G_3            
     e( 59 - 60) =     -7.27033  eV     2   --> G_4            
     e( 61 - 61) =     -6.78191  eV     1   --> G_4            
     e( 62 - 62) =     -6.78155  eV     1   --> G_3            
     e( 63 - 63) =     -6.78061  eV     1   --> G_4            
     e( 64 - 64) =     -6.78030  eV     1   --> G_3            
     e( 65 - 65) =     -6.65687  eV     1   --> G_4            
     e( 66 - 66) =     -6.65626  eV     1   --> G_3            
     e( 67 - 67) =     -6.55900  eV     1   --> G_3            
     e( 68 - 68) =     -6.55852  eV     1   --> G_4            
     e( 69 - 69) =     -6.43192  eV     1   --> G_3            
     e( 70 - 70) =     -6.43176  eV     1   --> G_4            
     e( 71 - 71) =     -6.43131  eV     1   --> G_3            
     e( 72 - 72) =     -6.43111  eV     1   --> G_4            
     e( 73 - 74) =      0.34885  eV     2   --> G_3            
     e( 73 - 74) =      0.34885  eV     2   --> G_4            
     e( 75 - 76) =      0.34917  eV     2   --> G_3            
     e( 75 - 76) =      0.34917  eV     2   --> G_4            
     e( 77 - 78) =      0.60283  eV     2   --> G_3            
     e( 77 - 78) =      0.60283  eV     2   --> G_4            
     e( 79 - 80) =      2.28329  eV     2   --> G_3            
     e( 79 - 80) =      2.28329  eV     2   --> G_4            
     e( 81 - 81) =      2.86623  eV     1   --> G_3            
     e( 82 - 82) =      2.86636  eV     1   --> G_4            
     e( 83 - 83) =      2.86771  eV     1   --> G_4            
     e( 84 - 84) =      2.86800  eV     1   --> G_3            
     e( 85 - 85) =      4.92555  eV     1   --> G_4            
     e( 86 - 86) =      4.92593  eV     1   --> G_3            
     e( 87 - 87) =      4.93725  eV     1   --> G_4            
     e( 88 - 88) =      4.93995  eV     1   --> G_3            
     e( 89 - 89) =      5.00861  eV     1   --> G_3            
     e( 90 - 90) =      5.00949  eV     1   --> G_4            
     e( 91 - 91) =      5.10005  eV     1   --> G_3            
     e( 92 - 92) =      5.10313  eV     1   --> G_4            
     e( 93 - 93) =      5.11468  eV     1   --> G_3            
     e( 94 - 94) =      5.11756  eV     1   --> G_4            
     e( 95 - 95) =      5.12697  eV     1   --> G_3            
     e( 96 - 96) =      5.12985  eV     1   --> G_4            
     e( 97 - 97) =      5.31906  eV     1   --> G_3            
     e( 98 - 98) =      5.32050  eV     1   --> G_4            
     e( 99 - 99) =      5.36188  eV     1   --> G_3            
     e(100 -100) =      5.36257  eV     1   --> G_4            
     e(101 -101) =      5.36925  eV     1   --> G_4            
     e(102 -102) =      5.37124  eV     1   --> G_3            
     e(103 -103) =      5.42676  eV     1   --> G_4            
     e(104 -104) =      5.42705  eV     1   --> G_3            
     e(105 -105) =      5.42783  eV     1   --> G_4            
     e(106 -106) =      5.42805  eV     1   --> G_3            
     e(107 -107) =      5.52331  eV     1   --> G_4            
     e(108 -108) =      5.52546  eV     1   --> G_3            
     e(109 -109) =      5.68961  eV     1   --> G_4            
     e(110 -110) =      5.68978  eV     1   --> G_3            
     e(111 -111) =      5.69597  eV     1   --> G_3            
     e(112 -112) =      5.69633  eV     1   --> G_4            
     e(113 -113) =      6.56931  eV     1   --> G_4            
     e(114 -114) =      6.58193  eV     1   --> G_3            
     e(115 -115) =      7.20085  eV     1   --> G_3            
     e(116 -116) =      7.21215  eV     1   --> G_4            
     e(117 -117) =      8.08693  eV     1   --> G_4            
     e(118 -118) =      8.09373  eV     1   --> G_3            
     e(119 -119) =      8.09836  eV     1   --> G_4            
     e(120 -120) =      8.10052  eV     1   --> G_3            

 **************************************************************************

 **************************************************************************

                    xk=(   0.00000,   0.08553,   0.07917  )

     Band symmetry, C_s (m)     double point group:

     e(  1 -  1) =     -8.33562  eV     1   --> G_4            
     e(  2 -  2) =     -8.33539  eV     1   --> G_3            
     e(  3 -  3) =     -8.33519  eV     1   --> G_4            
     e(  4 -  6) =     -8.33507  eV     3   -->   2 G_3            
     e(  4 -  6) =     -8.33507  eV     3   --> G_4            
     e(  7 -  8) =     -8.26295  eV     2   --> G_3            
     e(  7 -  8) =     -8.26295  eV     2   --> G_4            
     e(  9 - 10) =     -8.26263  eV     2   --> G_3            
     e(  9 - 10) =     -8.26263  eV     2   --> G_4            
     e( 11 - 12) =     -8.26238  eV     2   --> G_3            
     e( 11 - 12) =     -8.26238  eV     2   --> G_4            
     e( 13 - 14) =     -8.24893  eV     2   --> G_3            
     e( 13 - 14) =     -8.24893  eV     2   --> G_4            
     e( 15 - 16) =     -8.24853  eV     2   --> G_3            
     e( 15 - 16) =     -8.24853  eV     2   --> G_4            
     e( 17 - 18) =     -8.24828  eV     2   --> G_3            
     e( 17 - 18) =     -8.24828  eV     2   --> G_4            
     e( 19 - 20) =     -8.22941  eV     2   --> G_3            
     e( 19 - 20) =     -8.22941  eV     2   --> G_4            
     e( 21 - 23) =     -8.22915  eV     3   -->   2 G_3            
     e( 21 - 23) =     -8.22915  eV     3   --> G_4            
     e( 24 - 24) =     -8.22892  eV     1   --> G_4            
     e( 25 - 25) =     -7.52082  eV     1   --> G_3            
     e( 26 - 26) =     -7.52005  eV     1   --> G_4            
     e( 27 - 27) =     -7.51897  eV     1   --> G_3            
     e( 28 - 28) =     -7.51866  eV     1   --> G_4            
     e( 29 - 29) =     -7.51754  eV     1   --> G_3            
     e( 30 - 30) =     -7.51736  eV     1   --> G_4            
     e( 31 - 31) =     -7.46549  eV     1   --> G_4            
     e( 32 - 32) =     -7.46537  eV     1   --> G_3            
     e( 33 - 34) =     -7.46485  eV     2   --> G_3            
     e( 33 - 34) =     -7.46485  eV     2   --> G_4            
     e( 35 - 36) =     -7.46452  eV     2   --> G_3            
     e( 35 - 36) =     -7.46452  eV     2   --> G_4            
     e( 37 - 38) =     -7.43565  eV     2   --> G_3            
     e( 37 - 38) =     -7.43565  eV     2   --> G_4            
     e( 39 - 40) =     -7.43501  eV     2   --> G_3            
     e( 39 - 40) =     -7.43501  eV     2   --> G_4            
     e( 41 - 42) =     -7.43447  eV     2   --> G_3            
     e( 41 - 42) =     -7.43447  eV     2   --> G_4            
     e( 43 - 43) =     -7.37929  eV     1   --> G_4            
     e( 44 - 44) =     -7.37902  eV     1   --> G_3            
     e( 45 - 46) =     -7.37822  eV     2   --> G_3            
     e( 45 - 46) =     -7.37822  eV     2   --> G_4            
     e( 47 - 48) =     -7.37786  eV     2   --> G_3            
     e( 47 - 48) =     -7.37786  eV     2   --> G_4            
     e( 49 - 49) =     -7.33200  eV     1   --> G_4            
     e( 50 - 50) =     -7.33183  eV     1   --> G_3            
     e( 51 - 52) =     -7.32648  eV     2   --> G_3            
     e( 51 - 52) =     -7.32648  eV     2   --> G_4            
     e( 53 - 54) =     -7.32422  eV     2   --> G_3            
     e( 53 - 54) =     -7.32422  eV     2   --> G_4            
     e( 55 - 56) =     -7.26873  eV     2   --> G_3            
     e( 55 - 56) =     -7.26873  eV     2   --> G_4            
     e( 57 - 58) =     -7.26838  eV     2   --> G_3            
     e( 57 - 58) =     -7.26838  eV     2   --> G_4            
     e( 59 - 60) =     -7.26810  eV     2   --> G_3            
     e( 59 - 60) =     -7.26810  eV     2   --> G_4            
     e( 61 - 61) =     -6.75394  eV     1   --> G_4            
     e( 62 - 62) =     -6.75347  eV     1   --> G_3            
     e( 63 - 63) =     -6.75184  eV     1   --> G_4            
     e( 64 - 64) =     -6.75147  eV     1   --> G_3            
     e( 65 - 65) =     -6.63195  eV     1   --> G_4            
     e( 66 - 66) =     -6.63121  eV     1   --> G_3            
     e( 67 - 67) =     -6.53259  eV     1   --> G_3            
     e( 68 - 68) =     -6.53200  eV     1   --> G_4            
     e( 69 - 69) =     -6.40820  eV     1   --> G_3            
     e( 70 - 70) =     -6.40802  eV     1   --> G_4            
     e( 71 - 71) =     -6.40720  eV     1   --> G_3            
     e( 72 - 72) =     -6.40692  eV     1   --> G_4            
     e( 73 - 73) =      0.36420  eV     1   --> G_3            
     e( 74 - 74) =      0.36432  eV     1   --> G_4            
     e( 75 - 76) =      0.36489  eV     2   --> G_3            
     e( 75 - 76) =      0.36489  eV     2   --> G_4            
     e( 77 - 78) =      0.61098  eV     2   --> G_3            
     e( 77 - 78) =      0.61098  eV     2   --> G_4            
     e( 79 - 80) =      2.29455  eV     2   --> G_3            
     e( 79 - 80) =      2.29455  eV     2   --> G_4            
     e( 81 - 81) =      2.84441  eV     1   --> G_3            
     e( 82 - 82) =      2.84469  eV     1   --> G_4            
     e( 83 - 83) =      2.84802  eV     1   --> G_4            
     e( 84 - 84) =      2.84853  eV     1   --> G_3            
     e( 85 - 85) =      4.78973  eV     1   --> G_3            
     e( 86 - 86) =      4.79019  eV     1   --> G_4            
     e( 87 - 87) =      4.80718  eV     1   --> G_4            
     e( 88 - 88) =      4.80939  eV     1   --> G_3            
     e( 89 - 89) =      4.90172  eV     1   --> G_3            
     e( 90 - 90) =      4.90292  eV     1   --> G_4            
     e( 91 - 91) =      4.97962  eV     1   --> G_3            
     e( 92 - 92) =      4.98274  eV     1   --> G_4            
     e( 93 - 93) =      5.01268  eV     1   --> G_3            
     e( 94 - 94) =      5.01484  eV     1   --> G_4            
     e( 95 - 95) =      5.03879  eV     1   --> G_3            
     e( 96 - 96) =      5.04144  eV     1   --> G_4            
     e( 97 - 97) =      5.26114  eV     1   --> G_3            
     e( 98 - 98) =      5.26261  eV     1   --> G_4            
     e( 99 - 99) =      5.30996  eV     1   --> G_4            
     e(100 -100) =      5.31238  eV     1   --> G_3            
     e(101 -101) =      5.31314  eV     1   --> G_4            
     e(102 -102) =      5.31345  eV     1   --> G_3            
     e(103 -103) =      5.39328  eV     1   --> G_4            
     e(104 -104) =      5.39366  eV     1   --> G_3            
     e(105 -105) =      5.40266  eV     1   --> G_3            
     e(106 -106) =      5.40394  eV     1   --> G_4            
     e(107 -107) =      5.47537  eV     1   --> G_4            
     e(108 -108) =      5.47801  eV     1   --> G_3            
     e(109 -109) =      5.71875  eV     1   --> G_4            
     e(110 -110) =      5.71985  eV     1   --> G_3            
     e(111 -111) =      5.72578  eV     1   --> G_3            
     e(112 -112) =      5.72711  eV     1   --> G_4            
     e(113 -113) =      6.55212  eV     1   --> G_4            
     e(114 -114) =      6.56382  eV     1   --> G_3            
     e(115 -115) =      7.36830  eV     1   --> G_3            
     e(116 -116) =      7.37884  eV     1   --> G_4            
     e(117 -117) =      8.15721  eV     1   --> G_4            
     e(118 -118) =      8.16698  eV     1   --> G_3            
     e(119 -119) =      8.18124  eV     1   --> G_4            
     e(120 -120) =      8.18282  eV     1   --> G_3            

 **************************************************************************

 **************************************************************************

                    xk=(   0.00000,   0.10692,   0.07917  )

     Band symmetry, C_s (m)     double point group:

     e(  1 -  1) =     -8.33763  eV     1   --> G_4            
     e(  2 -  2) =     -8.33731  eV     1   --> G_3            
     e(  3 -  3) =     -8.33711  eV     1   --> G_4            
     e(  4 -  6) =     -8.33699  eV     3   -->   2 G_3            
     e(  4 -  6) =     -8.33699  eV     3   --> G_4            
     e(  7 -  8) =     -8.26486  eV     2   --> G_3            
     e(  7 -  8) =     -8.26486  eV     2   --> G_4            
     e(  9 - 10) =     -8.26446  eV     2   --> G_3            
     e(  9 - 10) =     -8.26446  eV     2   --> G_4            
     e( 11 - 12) =     -8.26410  eV     2   --> G_3            
     e( 11 - 12) =     -8.26410  eV     2   --> G_4            
     e( 13 - 14) =     -8.25198  eV     2   --> G_3            
     e( 13 - 14) =     -8.25198  eV     2   --> G_4            
     e( 15 - 16) =     -8.25132  eV     2   --> G_3            
     e( 15 - 16) =     -8.25132  eV     2   --> G_4            
     e( 17 - 18) =     -8.25107  eV     2   --> G_3            
     e( 17 - 18) =     -8.25107  eV     2   --> G_4            
     e( 19 - 20) =     -8.22904  eV     2   --> G_3            
     e( 19 - 20) =     -8.22904  eV     2   --> G_4            
     e( 21 - 22) =     -8.22877  eV     2   --> G_3            
     e( 21 - 22) =     -8.22877  eV     2   --> G_4            
     e( 23 - 23) =     -8.22860  eV     1   --> G_3            
     e( 24 - 24) =     -8.22847  eV     1   --> G_4            
     e( 25 - 25) =     -7.53410  eV     1   --> G_3            
     e( 26 - 26) =     -7.53326  eV     1   --> G_4            
     e( 27 - 27) =     -7.53157  eV     1   --> G_3            
     e( 28 - 28) =     -7.53118  eV     1   --> G_4            
     e( 29 - 29) =     -7.52947  eV     1   --> G_3            
     e( 30 - 30) =     -7.52928  eV     1   --> G_4            
     e( 31 - 31) =     -7.46913  eV     1   --> G_4            
     e( 32 - 32) =     -7.46896  eV     1   --> G_3            
     e( 33 - 34) =     -7.46869  eV     2   --> G_3            
     e( 33 - 34) =     -7.46869  eV     2   --> G_4            
     e( 35 - 36) =     -7.46784  eV     2   --> G_3            
     e( 35 - 36) =     -7.46784  eV     2   --> G_4            
     e( 37 - 38) =     -7.43700  eV     2   --> G_3            
     e( 37 - 38) =     -7.43700  eV     2   --> G_4            
     e( 39 - 40) =     -7.43617  eV     2   --> G_3            
     e( 39 - 40) =     -7.43617  eV     2   --> G_4            
     e( 41 - 42) =     -7.43554  eV     2   --> G_3            
     e( 41 - 42) =     -7.43554  eV     2   --> G_4            
     e( 43 - 43) =     -7.37963  eV     1   --> G_4            
     e( 44 - 44) =     -7.37934  eV     1   --> G_3            
     e( 45 - 46) =     -7.37850  eV     2   --> G_3            
     e( 45 - 46) =     -7.37850  eV     2   --> G_4            
     e( 47 - 48) =     -7.37805  eV     2   --> G_3            
     e( 47 - 48) =     -7.37805  eV     2   --> G_4            
     e( 49 - 49) =     -7.32957  eV     1   --> G_4            
     e( 50 - 50) =     -7.32941  eV     1   --> G_3            
     e( 51 - 52) =     -7.32551  eV     2   --> G_3            
     e( 51 - 52) =     -7.32551  eV     2   --> G_4            
     e( 53 - 54) =     -7.32288  eV     2   --> G_3            
     e( 53 - 54) =     -7.32288  eV     2   --> G_4            
     e( 55 - 56) =     -7.26604  eV     2   --> G_3            
     e( 55 - 56) =     -7.26604  eV     2   --> G_4            
     e( 57 - 58) =     -7.26569  eV     2   --> G_3            
     e( 57 - 58) =     -7.26569  eV     2   --> G_4            
     e( 59 - 60) =     -7.26533  eV     2   --> G_3            
     e( 59 - 60) =     -7.26533  eV     2   --> G_4            
     e( 61 - 61) =     -6.71908  eV     1   --> G_4            
     e( 62 - 62) =     -6.71849  eV     1   --> G_3            
     e( 63 - 63) =     -6.71615  eV     1   --> G_4            
     e( 64 - 64) =     -6.71576  eV     1   --> G_3            
     e( 65 - 65) =     -6.60040  eV     1   --> G_4            
     e( 66 - 66) =     -6.59955  eV     1   --> G_3            
     e( 67 - 67) =     -6.49979  eV     1   --> G_3            
     e( 68 - 68) =     -6.49911  eV     1   --> G_4            
     e( 69 - 69) =     -6.37841  eV     1   --> G_3            
     e( 70 - 70) =     -6.37823  eV     1   --> G_4            
     e( 71 - 71) =     -6.37698  eV     1   --> G_3            
     e( 72 - 72) =     -6.37661  eV     1   --> G_4            
     e( 73 - 73) =      0.38328  eV     1   --> G_3            
     e( 74 - 74) =      0.38347  eV     1   --> G_4            
     e( 75 - 75) =      0.38462  eV     1   --> G_4            
     e( 76 - 76) =      0.38478  eV     1   --> G_3            
     e( 77 - 78) =      0.62068  eV     2   --> G_3            
     e( 77 - 78) =      0.62068  eV     2   --> G_4            
     e( 79 - 80) =      2.30802  eV     2   --> G_3            
     e( 79 - 80) =      2.30802  eV     2   --> G_4            
     e( 81 - 81) =      2.81373  eV     1   --> G_3            
     e( 82 - 82) =      2.81420  eV     1   --> G_4            
     e( 83 - 83) =      2.82090  eV     1   --> G_4            
     e( 84 - 84) =      2.82168  eV     1   --> G_3            
     e( 85 - 85) =      4.63095  eV     1   --> G_3            
     e( 86 - 86) =      4.63197  eV     1   --> G_4            
     e( 87 - 87) =      4.65005  eV     1   --> G_4            
     e( 88 - 88) =      4.65153  eV     1   --> G_3            
     e( 89 - 89) =      4.74681  eV     1   --> G_3            
     e( 90 - 90) =      4.74836  eV     1   --> G_4            
     e( 91 - 91) =      4.83121  eV     1   --> G_3            
     e( 92 - 92) =      4.83427  eV     1   --> G_4            
     e( 93 - 93) =      4.91879  eV     1   --> G_3            
     e( 94 - 94) =      4.91986  eV     1   --> G_4            
     e( 95 - 95) =      4.95356  eV     1   --> G_3            
     e( 96 - 96) =      4.95614  eV     1   --> G_4            
     e( 97 - 97) =      5.20168  eV     1   --> G_3            
     e( 98 - 98) =      5.20302  eV     1   --> G_4            
     e( 99 - 99) =      5.24624  eV     1   --> G_4            
     e(100 -100) =      5.25100  eV     1   --> G_3            
     e(101 -101) =      5.26050  eV     1   --> G_3            
     e(102 -102) =      5.26138  eV     1   --> G_4            
     e(103 -103) =      5.35477  eV     1   --> G_4            
     e(104 -104) =      5.35521  eV     1   --> G_3            
     e(105 -105) =      5.37338  eV     1   --> G_3            
     e(106 -106) =      5.37580  eV     1   --> G_4            
     e(107 -107) =      5.43181  eV     1   --> G_4            
     e(108 -108) =      5.43459  eV     1   --> G_3            
     e(109 -109) =      5.74357  eV     1   --> G_4            
     e(110 -110) =      5.74552  eV     1   --> G_3            
     e(111 -111) =      5.74893  eV     1   --> G_3            
     e(112 -112) =      5.75113  eV     1   --> G_4            
     e(113 -113) =      6.52877  eV     1   --> G_4            
     e(114 -114) =      6.53947  eV     1   --> G_3            
     e(115 -115) =      7.54281  eV     1   --> G_3            
     e(116 -116) =      7.55241  eV     1   --> G_4            
     e(117 -117) =      8.23079  eV     1   --> G_4            
     e(118 -118) =      8.24374  eV     1   --> G_3            
     e(119 -119) =      8.27269  eV     1   --> G_4            
     e(120 -120) =      8.27299  eV     1   --> G_3            

 **************************************************************************

 **************************************************************************

                    xk=(   0.00000,   0.12830,   0.07917  )

     Band symmetry, C_s (m)     double point group:

     e(  1 -  1) =     -8.34011  eV     1   --> G_4            
     e(  2 -  2) =     -8.33971  eV     1   --> G_3            
     e(  3 -  3) =     -8.33948  eV     1   --> G_4            
     e(  4 -  6) =     -8.33937  eV     3   -->   2 G_3            
     e(  4 -  6) =     -8.33937  eV     3   --> G_4            
     e(  7 -  8) =     -8.26699  eV     2   --> G_3            
     e(  7 -  8) =     -8.26699  eV     2   --> G_4            
     e(  9 - 10) =     -8.26643  eV     2   --> G_3            
     e(  9 - 10) =     -8.26643  eV     2   --> G_4            
     e( 11 - 12) =     -8.26601  eV     2   --> G_3            
     e( 11 - 12) =     -8.26601  eV     2   --> G_4            
     e( 13 - 14) =     -8.25558  eV     2   --> G_3            
     e( 13 - 14) =     -8.25558  eV     2   --> G_4            
     e( 15 - 16) =     -8.25459  eV     2   --> G_3            
     e( 15 - 16) =     -8.25459  eV     2   --> G_4            
     e( 17 - 18) =     -8.25436  eV     2   --> G_3            
     e( 17 - 18) =     -8.25436  eV     2   --> G_4            
     e( 19 - 20) =     -8.22876  eV     2   --> G_3            
     e( 19 - 20) =     -8.22876  eV     2   --> G_4            
     e( 21 - 22) =     -8.22848  eV     2   --> G_3            
     e( 21 - 22) =     -8.22848  eV     2   --> G_4            
     e( 23 - 23) =     -8.22830  eV     1   --> G_3            
     e( 24 - 24) =     -8.22817  eV     1   --> G_4            
     e( 25 - 25) =     -7.54772  eV     1   --> G_3            
     e( 26 - 26) =     -7.54683  eV     1   --> G_4            
     e( 27 - 27) =     -7.54462  eV     1   --> G_3            
     e( 28 - 28) =     -7.54416  eV     1   --> G_4            
     e( 29 - 29) =     -7.54187  eV     1   --> G_3            
     e( 30 - 30) =     -7.54168  eV     1   --> G_4            
     e( 31 - 32) =     -7.47366  eV     2   --> G_3            
     e( 31 - 32) =     -7.47366  eV     2   --> G_4            
     e( 33 - 33) =     -7.47341  eV     1   --> G_4            
     e( 34 - 34) =     -7.47317  eV     1   --> G_3            
     e( 35 - 36) =     -7.47193  eV     2   --> G_3            
     e( 35 - 36) =     -7.47193  eV     2   --> G_4            
     e( 37 - 38) =     -7.43849  eV     2   --> G_3            
     e( 37 - 38) =     -7.43849  eV     2   --> G_4            
     e( 39 - 40) =     -7.43752  eV     2   --> G_3            
     e( 39 - 40) =     -7.43752  eV     2   --> G_4            
     e( 41 - 42) =     -7.43690  eV     2   --> G_3            
     e( 41 - 42) =     -7.43690  eV     2   --> G_4            
     e( 43 - 43) =     -7.37955  eV     1   --> G_4            
     e( 44 - 44) =     -7.37924  eV     1   --> G_3            
     e( 45 - 46) =     -7.37845  eV     2   --> G_3            
     e( 45 - 46) =     -7.37845  eV     2   --> G_4            
     e( 47 - 48) =     -7.37798  eV     2   --> G_3            
     e( 47 - 48) =     -7.37798  eV     2   --> G_4            
     e( 49 - 49) =     -7.32774  eV     1   --> G_4            
     e( 50 - 50) =     -7.32760  eV     1   --> G_3            
     e( 51 - 52) =     -7.32476  eV     2   --> G_3            
     e( 51 - 52) =     -7.32476  eV     2   --> G_4            
     e( 53 - 54) =     -7.32202  eV     2   --> G_3            
     e( 53 - 54) =     -7.32202  eV     2   --> G_4            
     e( 55 - 55) =     -7.26290  eV     1   --> G_3            
     e( 56 - 56) =     -7.26280  eV     1   --> G_4            
     e( 57 - 58) =     -7.26259  eV     2   --> G_3            
     e( 57 - 58) =     -7.26259  eV     2   --> G_4            
     e( 59 - 59) =     -7.26213  eV     1   --> G_4            
     e( 60 - 60) =     -7.26199  eV     1   --> G_3            
     e( 61 - 61) =     -6.67800  eV     1   --> G_4            
     e( 62 - 62) =     -6.67728  eV     1   --> G_3            
     e( 63 - 63) =     -6.67426  eV     1   --> G_4            
     e( 64 - 64) =     -6.67388  eV     1   --> G_3            
     e( 65 - 65) =     -6.56265  eV     1   --> G_4            
     e( 66 - 66) =     -6.56172  eV     1   --> G_3            
     e( 67 - 67) =     -6.46123  eV     1   --> G_3            
     e( 68 - 68) =     -6.46049  eV     1   --> G_4            
     e( 69 - 69) =     -6.34302  eV     1   --> G_3            
     e( 70 - 70) =     -6.34286  eV     1   --> G_4            
     e( 71 - 71) =     -6.34115  eV     1   --> G_3            
     e( 72 - 72) =     -6.34067  eV     1   --> G_4            
     e( 73 - 73) =      0.40559  eV     1   --> G_3            
     e( 74 - 74) =      0.40587  eV     1   --> G_4            
     e( 75 - 75) =      0.40795  eV     1   --> G_4            
     e( 76 - 76) =      0.40819  eV     1   --> G_3            
     e( 77 - 77) =      0.63131  eV     1   --> G_4            
     e( 78 - 78) =      0.63144  eV     1   --> G_3            
     e( 79 - 80) =      2.32278  eV     2   --> G_3            
     e( 79 - 80) =      2.32278  eV     2   --> G_4            
     e( 81 - 81) =      2.77254  eV     1   --> G_3            
     e( 82 - 82) =      2.77325  eV     1   --> G_4            
     e( 83 - 83) =      2.78505  eV     1   --> G_4            
     e( 84 - 84) =      2.78616  eV     1   --> G_3            
     e( 85 - 85) =      4.45837  eV     1   --> G_3            
     e( 86 - 86) =      4.45972  eV     1   --> G_4            
     e( 87 - 87) =      4.47552  eV     1   --> G_4            
     e( 88 - 88) =      4.47628  eV     1   --> G_3            
     e( 89 - 89) =      4.56036  eV     1   --> G_3            
     e( 90 - 90) =      4.56201  eV     1   --> G_4            
     e( 91 - 91) =      4.68511  eV     1   --> G_3            
     e( 92 - 92) =      4.68817  eV     1   --> G_4            
     e( 93 - 94) =      4.82192  eV     2   --> G_3            
     e( 93 - 94) =      4.82192  eV     2   --> G_4            
     e( 95 - 95) =      4.86222  eV     1   --> G_3            
     e( 96 - 96) =      4.86481  eV     1   --> G_4            
     e( 97 - 97) =      5.14162  eV     1   --> G_3            
     e( 98 - 98) =      5.14287  eV     1   --> G_4            
     e( 99 - 99) =      5.18119  eV     1   --> G_4            
     e(100 -100) =      5.18697  eV     1   --> G_3            
     e(101 -101) =      5.20673  eV     1   --> G_3            
     e(102 -102) =      5.20777  eV     1   --> G_4            
     e(103 -103) =      5.31134  eV     1   --> G_4            
     e(104 -104) =      5.31187  eV     1   --> G_3            
     e(105 -105) =      5.33938  eV     1   --> G_3            
     e(106 -106) =      5.34267  eV     1   --> G_4            
     e(107 -107) =      5.38808  eV     1   --> G_4            
     e(108 -108) =      5.39095  eV     1   --> G_3            
     e(109 -109) =      5.76433  eV     1   --> G_4            
     e(110 -110) =      5.76559  eV     1   --> G_3            
     e(111 -111) =      5.76705  eV     1   --> G_3            
     e(112 -112) =      5.76859  eV     1   --> G_4            
     e(113 -113) =      6.49808  eV     1   --> G_4            
     e(114 -114) =      6.50791  eV     1   --> G_3            
     e(115 -115) =      7.71584  eV     1   --> G_3            
     e(116 -116) =      7.72445  eV     1   --> G_4            
     e(117 -117) =      8.30030  eV     1   --> G_4            
     e(118 -118) =      8.31650  eV     1   --> G_3            
     e(119 -119) =      8.36341  eV     1   --> G_3            
     e(120 -120) =      8.36505  eV     1   --> G_4            

 **************************************************************************

 **************************************************************************

                    xk=(   0.00000,   0.14968,   0.07917  )

     Band symmetry, C_s (m)     double point group:

     e(  1 -  1) =     -8.34305  eV     1   --> G_4            
     e(  2 -  2) =     -8.34258  eV     1   --> G_3            
     e(  3 -  3) =     -8.34233  eV     1   --> G_4            
     e(  4 -  4) =     -8.34220  eV     1   --> G_3            
     e(  5 -  6) =     -8.34207  eV     2   --> G_3            
     e(  5 -  6) =     -8.34207  eV     2   --> G_4            
     e(  7 -  8) =     -8.26925  eV     2   --> G_3            
     e(  7 -  8) =     -8.26925  eV     2   --> G_4            
     e(  9 - 10) =     -8.26847  eV     2   --> G_3            
     e(  9 - 10) =     -8.26847  eV     2   --> G_4            
     e( 11 - 12) =     -8.26804  eV     2   --> G_3            
     e( 11 - 12) =     -8.26804  eV     2   --> G_4            
     e( 13 - 14) =     -8.25971  eV     2   --> G_3            
     e( 13 - 14) =     -8.25971  eV     2   --> G_4            
     e( 15 - 16) =     -8.25840  eV     2   --> G_3            
     e( 15 - 16) =     -8.25840  eV     2   --> G_4            
     e( 17 - 18) =     -8.25817  eV     2   --> G_3            
     e( 17 - 18) =     -8.25817  eV     2   --> G_4            
     e( 19 - 20) =     -8.22855  eV     2   --> G_3            
     e( 19 - 20) =     -8.22855  eV     2   --> G_4            
     e( 21 - 22) =     -8.22826  eV     2   --> G_3            
     e( 21 - 22) =     -8.22826  eV     2   --> G_4            
     e( 23 - 23) =     -8.22811  eV     1   --> G_3            
     e( 24 - 24) =     -8.22796  eV     1   --> G_4            
     e( 25 - 25) =     -7.56112  eV     1   --> G_3            
     e( 26 - 26) =     -7.56020  eV     1   --> G_4            
     e( 27 - 27) =     -7.55753  eV     1   --> G_3            
     e( 28 - 28) =     -7.55700  eV     1   --> G_4            
     e( 29 - 29) =     -7.55419  eV     1   --> G_3            
     e( 30 - 30) =     -7.55403  eV     1   --> G_4            
     e( 31 - 32) =     -7.47942  eV     2   --> G_3            
     e( 31 - 32) =     -7.47942  eV     2   --> G_4            
     e( 33 - 33) =     -7.47860  eV     1   --> G_4            
     e( 34 - 34) =     -7.47822  eV     1   --> G_3            
     e( 35 - 36) =     -7.47681  eV     2   --> G_3            
     e( 35 - 36) =     -7.47681  eV     2   --> G_4            
     e( 37 - 38) =     -7.43989  eV     2   --> G_3            
     e( 37 - 38) =     -7.43989  eV     2   --> G_4            
     e( 39 - 40) =     -7.43886  eV     2   --> G_3            
     e( 39 - 40) =     -7.43886  eV     2   --> G_4            
     e( 41 - 42) =     -7.43832  eV     2   --> G_3            
     e( 41 - 42) =     -7.43832  eV     2   --> G_4            
     e( 43 - 43) =     -7.37912  eV     1   --> G_4            
     e( 44 - 44) =     -7.37881  eV     1   --> G_3            
     e( 45 - 46) =     -7.37811  eV     2   --> G_3            
     e( 45 - 46) =     -7.37811  eV     2   --> G_4            
     e( 47 - 48) =     -7.37765  eV     2   --> G_3            
     e( 47 - 48) =     -7.37765  eV     2   --> G_4            
     e( 49 - 49) =     -7.32641  eV     1   --> G_4            
     e( 50 - 50) =     -7.32629  eV     1   --> G_3            
     e( 51 - 52) =     -7.32421  eV     2   --> G_3            
     e( 51 - 52) =     -7.32421  eV     2   --> G_4            
     e( 53 - 54) =     -7.32154  eV     2   --> G_3            
     e( 53 - 54) =     -7.32154  eV     2   --> G_4            
     e( 55 - 55) =     -7.25948  eV     1   --> G_3            
     e( 56 - 56) =     -7.25935  eV     1   --> G_4            
     e( 57 - 57) =     -7.25919  eV     1   --> G_3            
     e( 58 - 58) =     -7.25909  eV     1   --> G_4            
     e( 59 - 59) =     -7.25866  eV     1   --> G_4            
     e( 60 - 60) =     -7.25847  eV     1   --> G_3            
     e( 61 - 61) =     -6.63136  eV     1   --> G_4            
     e( 62 - 62) =     -6.63051  eV     1   --> G_3            
     e( 63 - 63) =     -6.62687  eV     1   --> G_4            
     e( 64 - 64) =     -6.62656  eV     1   --> G_3            
     e( 65 - 65) =     -6.51925  eV     1   --> G_4            
     e( 66 - 66) =     -6.51826  eV     1   --> G_3            
     e( 67 - 67) =     -6.41755  eV     1   --> G_3            
     e( 68 - 68) =     -6.41676  eV     1   --> G_4            
     e( 69 - 70) =     -6.30253  eV     2   --> G_3            
     e( 69 - 70) =     -6.30253  eV     2   --> G_4            
     e( 71 - 71) =     -6.30025  eV     1   --> G_3            
     e( 72 - 72) =     -6.29964  eV     1   --> G_4            
     e( 73 - 73) =      0.43046  eV     1   --> G_3            
     e( 74 - 74) =      0.43085  eV     1   --> G_4            
     e( 75 - 75) =      0.43433  eV     1   --> G_4            
     e( 76 - 76) =      0.43467  eV     1   --> G_3            
     e( 77 - 77) =      0.64211  eV     1   --> G_4            
     e( 78 - 78) =      0.64228  eV     1   --> G_3            
     e( 79 - 80) =      2.33748  eV     2   --> G_3            
     e( 79 - 80) =      2.33748  eV     2   --> G_4            
     e( 81 - 81) =      2.71920  eV     1   --> G_3            
     e( 82 - 82) =      2.72018  eV     1   --> G_4            
     e( 83 - 83) =      2.73909  eV     1   --> G_4            
     e( 84 - 84) =      2.74063  eV     1   --> G_3            
     e( 85 - 85) =      4.27803  eV     1   --> G_3            
     e( 86 - 86) =      4.27956  eV     1   --> G_4            
     e( 87 - 88) =      4.29086  eV     2   --> G_3            
     e( 87 - 88) =      4.29086  eV     2   --> G_4            
     e( 89 - 89) =      4.36518  eV     1   --> G_3            
     e( 90 - 90) =      4.36667  eV     1   --> G_4            
     e( 91 - 91) =      4.53448  eV     1   --> G_3            
     e( 92 - 92) =      4.53771  eV     1   --> G_4            
     e( 93 - 93) =      4.72614  eV     1   --> G_4            
     e( 94 - 94) =      4.72689  eV     1   --> G_3            
     e( 95 - 95) =      4.77054  eV     1   --> G_3            
     e( 96 - 96) =      4.77314  eV     1   --> G_4            
     e( 97 - 97) =      5.08036  eV     1   --> G_3            
     e( 98 - 98) =      5.08162  eV     1   --> G_4            
     e( 99 - 99) =      5.11551  eV     1   --> G_4            
     e(100 -100) =      5.12212  eV     1   --> G_3            
     e(101 -101) =      5.15103  eV     1   --> G_3            
     e(102 -102) =      5.15226  eV     1   --> G_4            
     e(103 -103) =      5.26333  eV     1   --> G_4            
     e(104 -104) =      5.26401  eV     1   --> G_3            
     e(105 -105) =      5.30072  eV     1   --> G_3            
     e(106 -106) =      5.30468  eV     1   --> G_4            
     e(107 -107) =      5.34217  eV     1   --> G_4            
     e(108 -108) =      5.34516  eV     1   --> G_3            
     e(109 -109) =      5.77607  eV     1   --> G_3            
     e(110 -110) =      5.77984  eV     1   --> G_4            
     e(111 -111) =      5.78142  eV     1   --> G_4            
     e(112 -112) =      5.78485  eV     1   --> G_3            
     e(113 -113) =      6.45921  eV     1   --> G_4            
     e(114 -114) =      6.46833  eV     1   --> G_3            
     e(115 -115) =      7.88138  eV     1   --> G_3            
     e(116 -116) =      7.88892  eV     1   --> G_4            
     e(117 -117) =      8.35949  eV     1   --> G_4            
     e(118 -118) =      8.37878  eV     1   --> G_3            
     e(119 -119) =      8.44721  eV     1   --> G_3            
     e(120 -120) =      8.45136  eV     1   --> G_4            

 **************************************************************************

 **************************************************************************

                    xk=(   0.00000,   0.17107,   0.07917  )

     Band symmetry, C_s (m)     double point group:

     e(  1 -  1) =     -8.34643  eV     1   --> G_4            
     e(  2 -  2) =     -8.34589  eV     1   --> G_3            
     e(  3 -  3) =     -8.34563  eV     1   --> G_4            
     e(  4 -  4) =     -8.34548  eV     1   --> G_3            
     e(  5 -  6) =     -8.34530  eV     2   --> G_3            
     e(  5 -  6) =     -8.34530  eV     2   --> G_4            
     e(  7 -  8) =     -8.27169  eV     2   --> G_3            
     e(  7 -  8) =     -8.27169  eV     2   --> G_4            
     e(  9 - 10) =     -8.27054  eV     2   --> G_3            
     e(  9 - 10) =     -8.27054  eV     2   --> G_4            
     e( 11 - 12) =     -8.27028  eV     2   --> G_3            
     e( 11 - 12) =     -8.27028  eV     2   --> G_4            
     e( 13 - 14) =     -8.26420  eV     2   --> G_3            
     e( 13 - 14) =     -8.26420  eV     2   --> G_4            
     e( 15 - 16) =     -8.26273  eV     2   --> G_3            
     e( 15 - 16) =     -8.26273  eV     2   --> G_4            
     e( 17 - 18) =     -8.26242  eV     2   --> G_3            
     e( 17 - 18) =     -8.26242  eV     2   --> G_4            
     e( 19 - 20) =     -8.22837  eV     2   --> G_3            
     e( 19 - 20) =     -8.22837  eV     2   --> G_4            
     e( 21 - 22) =     -8.22807  eV     2   --> G_3            
     e( 21 - 22) =     -8.22807  eV     2   --> G_4            
     e( 23 - 23) =     -8.22796  eV     1   --> G_3            
     e( 24 - 24) =     -8.22782  eV     1   --> G_4            
     e( 25 - 25) =     -7.57390  eV     1   --> G_3            
     e( 26 - 26) =     -7.57296  eV     1   --> G_4            
     e( 27 - 27) =     -7.56991  eV     1   --> G_3            
     e( 28 - 28) =     -7.56930  eV     1   --> G_4            
     e( 29 - 29) =     -7.56606  eV     1   --> G_3            
     e( 30 - 30) =     -7.56595  eV     1   --> G_4            
     e( 31 - 31) =     -7.48590  eV     1   --> G_3            
     e( 32 - 32) =     -7.48577  eV     1   --> G_4            
     e( 33 - 33) =     -7.48436  eV     1   --> G_4            
     e( 34 - 34) =     -7.48388  eV     1   --> G_3            
     e( 35 - 35) =     -7.48236  eV     1   --> G_3            
     e( 36 - 36) =     -7.48225  eV     1   --> G_4            
     e( 37 - 38) =     -7.44112  eV     2   --> G_3            
     e( 37 - 38) =     -7.44112  eV     2   --> G_4            
     e( 39 - 40) =     -7.44010  eV     2   --> G_3            
     e( 39 - 40) =     -7.44010  eV     2   --> G_4            
     e( 41 - 42) =     -7.43964  eV     2   --> G_3            
     e( 41 - 42) =     -7.43964  eV     2   --> G_4            
     e( 43 - 43) =     -7.37841  eV     1   --> G_4            
     e( 44 - 44) =     -7.37810  eV     1   --> G_3            
     e( 45 - 46) =     -7.37751  eV     2   --> G_3            
     e( 45 - 46) =     -7.37751  eV     2   --> G_4            
     e( 47 - 48) =     -7.37709  eV     2   --> G_3            
     e( 47 - 48) =     -7.37709  eV     2   --> G_4            
     e( 49 - 50) =     -7.32545  eV     2   --> G_3            
     e( 49 - 50) =     -7.32545  eV     2   --> G_4            
     e( 51 - 52) =     -7.32377  eV     2   --> G_3            
     e( 51 - 52) =     -7.32377  eV     2   --> G_4            
     e( 53 - 54) =     -7.32130  eV     2   --> G_3            
     e( 53 - 54) =     -7.32130  eV     2   --> G_4            
     e( 55 - 55) =     -7.25588  eV     1   --> G_3            
     e( 56 - 56) =     -7.25573  eV     1   --> G_4            
     e( 57 - 57) =     -7.25563  eV     1   --> G_3            
     e( 58 - 58) =     -7.25549  eV     1   --> G_4            
     e( 59 - 59) =     -7.25504  eV     1   --> G_4            
     e( 60 - 60) =     -7.25481  eV     1   --> G_3            
     e( 61 - 61) =     -6.57983  eV     1   --> G_4            
     e( 62 - 62) =     -6.57882  eV     1   --> G_3            
     e( 63 - 63) =     -6.57464  eV     1   --> G_4            
     e( 64 - 64) =     -6.57445  eV     1   --> G_3            
     e( 65 - 65) =     -6.47079  eV     1   --> G_4            
     e( 66 - 66) =     -6.46974  eV     1   --> G_3            
     e( 67 - 67) =     -6.36935  eV     1   --> G_3            
     e( 68 - 68) =     -6.36852  eV     1   --> G_4            
     e( 69 - 70) =     -6.25750  eV     2   --> G_3            
     e( 69 - 70) =     -6.25750  eV     2   --> G_4            
     e( 71 - 71) =     -6.25486  eV     1   --> G_3            
     e( 72 - 72) =     -6.25408  eV     1   --> G_4            
     e( 73 - 73) =      0.45705  eV     1   --> G_3            
     e( 74 - 74) =      0.45758  eV     1   --> G_4            
     e( 75 - 75) =      0.46304  eV     1   --> G_4            
     e( 76 - 76) =      0.46351  eV     1   --> G_3            
     e( 77 - 77) =      0.65217  eV     1   --> G_4            
     e( 78 - 78) =      0.65238  eV     1   --> G_3            
     e( 79 - 80) =      2.35012  eV     2   --> G_3            
     e( 79 - 80) =      2.35012  eV     2   --> G_4            
     e( 81 - 81) =      2.65239  eV     1   --> G_3            
     e( 82 - 82) =      2.65367  eV     1   --> G_4            
     e( 83 - 83) =      2.68185  eV     1   --> G_4            
     e( 84 - 84) =      2.68389  eV     1   --> G_3            
     e( 85 - 85) =      4.09452  eV     1   --> G_3            
     e( 86 - 86) =      4.09619  eV     1   --> G_4            
     e( 87 - 87) =      4.10117  eV     1   --> G_3            
     e( 88 - 88) =      4.10168  eV     1   --> G_4            
     e( 89 - 89) =      4.17174  eV     1   --> G_3            
     e( 90 - 90) =      4.17289  eV     1   --> G_4            
     e( 91 - 91) =      4.38153  eV     1   --> G_3            
     e( 92 - 92) =      4.38506  eV     1   --> G_4            
     e( 93 - 93) =      4.63690  eV     1   --> G_4            
     e( 94 - 94) =      4.63836  eV     1   --> G_3            
     e( 95 - 95) =      4.68418  eV     1   --> G_3            
     e( 96 - 96) =      4.68678  eV     1   --> G_4            
     e( 97 - 97) =      5.01756  eV     1   --> G_3            
     e( 98 - 98) =      5.01891  eV     1   --> G_4            
     e( 99 - 99) =      5.04922  eV     1   --> G_4            
     e(100 -100) =      5.05655  eV     1   --> G_3            
     e(101 -101) =      5.09347  eV     1   --> G_3            
     e(102 -102) =      5.09492  eV     1   --> G_4            
     e(103 -103) =      5.21135  eV     1   --> G_4            
     e(104 -104) =      5.21221  eV     1   --> G_3            
     e(105 -105) =      5.25786  eV     1   --> G_3            
     e(106 -106) =      5.26236  eV     1   --> G_4            
     e(107 -107) =      5.29353  eV     1   --> G_4            
     e(108 -108) =      5.29671  eV     1   --> G_3            
     e(109 -109) =      5.78043  eV     1   --> G_3            
     e(110 -110) =      5.78495  eV     1   --> G_4            
     e(111 -111) =      5.79497  eV     1   --> G_4            
     e(112 -112) =      5.79908  eV     1   --> G_3            
     e(113 -113) =      6.41149  eV     1   --> G_4            
     e(114 -114) =      6.42004  eV     1   --> G_3            
     e(115 -115) =      8.03472  eV     1   --> G_3            
     e(116 -116) =      8.04107  eV     1   --> G_4            
     e(117 -117) =      8.40346  eV     1   --> G_4            
     e(118 -118) =      8.42537  eV     1   --> G_3            
     e(119 -119) =      8.51847  eV     1   --> G_3            
     e(120 -120) =      8.52546  eV     1   --> G_4            

 **************************************************************************

 **************************************************************************

                    xk=(   0.00000,   0.19245,   0.07917  )

     Band symmetry, C_s (m)     double point group:

     e(  1 -  1) =     -8.35019  eV     1   --> G_4            
     e(  2 -  2) =     -8.34961  eV     1   --> G_3            
     e(  3 -  3) =     -8.34935  eV     1   --> G_4            
     e(  4 -  4) =     -8.34918  eV     1   --> G_3            
     e(  5 -  6) =     -8.34892  eV     2   --> G_3            
     e(  5 -  6) =     -8.34892  eV     2   --> G_4            
     e(  7 -  7) =     -8.27463  eV     1   --> G_3            
     e(  8 -  8) =     -8.27448  eV     1   --> G_4            
     e(  9 -  9) =     -8.27356  eV     1   --> G_4            
     e( 10 - 10) =     -8.27343  eV     1   --> G_3            
     e( 11 - 12) =     -8.27283  eV     2   --> G_3            
     e( 11 - 12) =     -8.27283  eV     2   --> G_4            
     e( 13 - 14) =     -8.26834  eV     2   --> G_3            
     e( 13 - 14) =     -8.26834  eV     2   --> G_4            
     e( 15 - 15) =     -8.26732  eV     1   --> G_3            
     e( 16 - 16) =     -8.26717  eV     1   --> G_4            
     e( 17 - 18) =     -8.26669  eV     2   --> G_3            
     e( 17 - 18) =     -8.26669  eV     2   --> G_4            
     e( 19 - 20) =     -8.22821  eV     2   --> G_3            
     e( 19 - 20) =     -8.22821  eV     2   --> G_4            
     e( 21 - 23) =     -8.22789  eV     3   -->   2 G_3            
     e( 21 - 23) =     -8.22789  eV     3   --> G_4            
     e( 24 - 24) =     -8.22770  eV     1   --> G_4            
     e( 25 - 25) =     -7.58580  eV     1   --> G_3            
     e( 26 - 26) =     -7.58486  eV     1   --> G_4            
     e( 27 - 27) =     -7.58149  eV     1   --> G_3            
     e( 28 - 28) =     -7.58080  eV     1   --> G_4            
     e( 29 - 30) =     -7.57721  eV     2   --> G_3            
     e( 29 - 30) =     -7.57721  eV     2   --> G_4            
     e( 31 - 31) =     -7.49279  eV     1   --> G_3            
     e( 32 - 32) =     -7.49263  eV     1   --> G_4            
     e( 33 - 33) =     -7.49055  eV     1   --> G_4            
     e( 34 - 34) =     -7.48997  eV     1   --> G_3            
     e( 35 - 35) =     -7.48839  eV     1   --> G_3            
     e( 36 - 36) =     -7.48825  eV     1   --> G_4            
     e( 37 - 38) =     -7.44216  eV     2   --> G_3            
     e( 37 - 38) =     -7.44216  eV     2   --> G_4            
     e( 39 - 40) =     -7.44120  eV     2   --> G_3            
     e( 39 - 40) =     -7.44120  eV     2   --> G_4            
     e( 41 - 42) =     -7.44081  eV     2   --> G_3            
     e( 41 - 42) =     -7.44081  eV     2   --> G_4            
     e( 43 - 43) =     -7.37747  eV     1   --> G_4            
     e( 44 - 44) =     -7.37716  eV     1   --> G_3            
     e( 45 - 46) =     -7.37667  eV     2   --> G_3            
     e( 45 - 46) =     -7.37667  eV     2   --> G_4            
     e( 47 - 48) =     -7.37631  eV     2   --> G_3            
     e( 47 - 48) =     -7.37631  eV     2   --> G_4            
     e( 49 - 50) =     -7.32472  eV     2   --> G_3            
     e( 49 - 50) =     -7.32472  eV     2   --> G_4            
     e( 51 - 52) =     -7.32337  eV     2   --> G_3            
     e( 51 - 52) =     -7.32337  eV     2   --> G_4            
     e( 53 - 54) =     -7.32118  eV     2   --> G_3            
     e( 53 - 54) =     -7.32118  eV     2   --> G_4            
     e( 55 - 55) =     -7.25221  eV     1   --> G_3            
     e( 56 - 57) =     -7.25204  eV     2   --> G_3            
     e( 56 - 57) =     -7.25204  eV     2   --> G_4            
     e( 58 - 58) =     -7.25181  eV     1   --> G_4            
     e( 59 - 59) =     -7.25136  eV     1   --> G_4            
     e( 60 - 60) =     -7.25109  eV     1   --> G_3            
     e( 61 - 61) =     -6.52403  eV     1   --> G_4            
     e( 62 - 62) =     -6.52283  eV     1   --> G_3            
     e( 63 - 64) =     -6.51821  eV     2   --> G_3            
     e( 63 - 64) =     -6.51821  eV     2   --> G_4            
     e( 65 - 65) =     -6.41788  eV     1   --> G_4            
     e( 66 - 66) =     -6.41677  eV     1   --> G_3            
     e( 67 - 67) =     -6.31724  eV     1   --> G_3            
     e( 68 - 68) =     -6.31635  eV     1   --> G_4            
     e( 69 - 69) =     -6.20861  eV     1   --> G_4            
     e( 70 - 70) =     -6.20843  eV     1   --> G_3            
     e( 71 - 71) =     -6.20555  eV     1   --> G_3            
     e( 72 - 72) =     -6.20456  eV     1   --> G_4            
     e( 73 - 73) =      0.48432  eV     1   --> G_3            
     e( 74 - 74) =      0.48501  eV     1   --> G_4            
     e( 75 - 75) =      0.49321  eV     1   --> G_4            
     e( 76 - 76) =      0.49381  eV     1   --> G_3            
     e( 77 - 77) =      0.66042  eV     1   --> G_4            
     e( 78 - 78) =      0.66068  eV     1   --> G_3            
     e( 79 - 80) =      2.35776  eV     2   --> G_3            
     e( 79 - 80) =      2.35776  eV     2   --> G_4            
     e( 81 - 81) =      2.57142  eV     1   --> G_3            
     e( 82 - 82) =      2.57301  eV     1   --> G_4            
     e( 83 - 83) =      2.61258  eV     1   --> G_4            
     e( 84 - 84) =      2.61520  eV     1   --> G_3            
     e( 85 - 85) =      3.91150  eV     1   --> G_3            
     e( 86 - 86) =      3.91172  eV     1   --> G_3            
     e( 87 - 87) =      3.91258  eV     1   --> G_4            
     e( 88 - 88) =      3.91353  eV     1   --> G_4            
     e( 89 - 89) =      3.98681  eV     1   --> G_3            
     e( 90 - 90) =      3.98745  eV     1   --> G_4            
     e( 91 - 91) =      4.23038  eV     1   --> G_3            
     e( 92 - 92) =      4.23436  eV     1   --> G_4            
     e( 93 - 93) =      4.55792  eV     1   --> G_4            
     e( 94 - 94) =      4.56000  eV     1   --> G_3            
     e( 95 - 95) =      4.60741  eV     1   --> G_3            
     e( 96 - 96) =      4.61002  eV     1   --> G_4            
     e( 97 - 97) =      4.95334  eV     1   --> G_3            
     e( 98 - 98) =      4.95484  eV     1   --> G_4            
     e( 99 - 99) =      4.98243  eV     1   --> G_4            
     e(100 -100) =      4.99043  eV     1   --> G_3            
     e(101 -101) =      5.03432  eV     1   --> G_3            
     e(102 -102) =      5.03603  eV     1   --> G_4            
     e(103 -103) =      5.15616  eV     1   --> G_4            
     e(104 -104) =      5.15724  eV     1   --> G_3            
     e(105 -105) =      5.21148  eV     1   --> G_3            
     e(106 -106) =      5.21643  eV     1   --> G_4            
     e(107 -107) =      5.24230  eV     1   --> G_4            
     e(108 -108) =      5.24575  eV     1   --> G_3            
     e(109 -109) =      5.77834  eV     1   --> G_3            
     e(110 -110) =      5.78365  eV     1   --> G_4            
     e(111 -111) =      5.80483  eV     1   --> G_4            
     e(112 -112) =      5.80959  eV     1   --> G_3            
     e(113 -113) =      6.35440  eV     1   --> G_4            
     e(114 -114) =      6.36249  eV     1   --> G_3            
     e(115 -115) =      8.17195  eV     1   --> G_3            
     e(116 -116) =      8.17691  eV     1   --> G_4            
     e(117 -117) =      8.42898  eV     1   --> G_4            
     e(118 -118) =      8.45254  eV     1   --> G_3            
     e(119 -119) =      8.57223  eV     1   --> G_3            
     e(120 -120) =      8.58194  eV     1   --> G_4            

 **************************************************************************

 **************************************************************************

                    xk=(   0.00000,   0.21383,   0.07917  )

     Band symmetry, C_s (m)     double point group:

     e(  1 -  1) =     -8.35426  eV     1   --> G_4            
     e(  2 -  2) =     -8.35365  eV     1   --> G_3            
     e(  3 -  3) =     -8.35343  eV     1   --> G_4            
     e(  4 -  4) =     -8.35323  eV     1   --> G_3            
     e(  5 -  6) =     -8.35287  eV     2   --> G_3            
     e(  5 -  6) =     -8.35287  eV     2   --> G_4            
     e(  7 -  7) =     -8.27881  eV     1   --> G_3            
     e(  8 -  8) =     -8.27871  eV     1   --> G_4            
     e(  9 - 10) =     -8.27848  eV     2   --> G_3            
     e(  9 - 10) =     -8.27848  eV     2   --> G_4            
     e( 11 - 12) =     -8.27653  eV     2   --> G_3            
     e( 11 - 12) =     -8.27653  eV     2   --> G_4            
     e( 13 - 13) =     -8.27115  eV     1   --> G_3            
     e( 14 - 14) =     -8.27104  eV     1   --> G_4            
     e( 15 - 15) =     -8.27092  eV     1   --> G_3            
     e( 16 - 16) =     -8.27076  eV     1   --> G_4            
     e( 17 - 18) =     -8.27020  eV     2   --> G_3            
     e( 17 - 18) =     -8.27020  eV     2   --> G_4            
     e( 19 - 20) =     -8.22803  eV     2   --> G_3            
     e( 19 - 20) =     -8.22803  eV     2   --> G_4            
     e( 21 - 23) =     -8.22771  eV     3   -->   2 G_3            
     e( 21 - 23) =     -8.22771  eV     3   --> G_4            
     e( 24 - 24) =     -8.22756  eV     1   --> G_4            
     e( 25 - 25) =     -7.59667  eV     1   --> G_3            
     e( 26 - 26) =     -7.59574  eV     1   --> G_4            
[...]
     e( 23 - 24) =     -8.20728  eV     2   --> G_6            
     e( 25 - 25) =     -7.74908  eV     1   --> G_6            
     e( 26 - 27) =     -7.74877  eV     2   --> G_4            
     e( 26 - 27) =     -7.74877  eV     2   --> G_5            
     e( 28 - 28) =     -7.58955  eV     1   --> G_6            
     e( 29 - 30) =     -7.58926  eV     2   --> G_4            
     e( 29 - 30) =     -7.58926  eV     2   --> G_5            
     e( 31 - 31) =     -7.58801  eV     1   --> G_4            
     e( 32 - 33) =     -7.58772  eV     2   --> G_5            
     e( 32 - 33) =     -7.58772  eV     2   --> G_6            
     e( 34 - 34) =     -7.58505  eV     1   --> G_4            
     e( 35 - 36) =     -7.58475  eV     2   --> G_5            
     e( 35 - 36) =     -7.58475  eV     2   --> G_6            
     e( 37 - 37) =     -7.46890  eV     1   --> G_5            
     e( 38 - 39) =     -7.46860  eV     2   --> G_4            
     e( 38 - 39) =     -7.46860  eV     2   --> G_6            
     e( 40 - 40) =     -7.38533  eV     1   --> G_4            
     e( 41 - 42) =     -7.38505  eV     2   --> G_5            
     e( 41 - 42) =     -7.38505  eV     2   --> G_6            
     e( 43 - 43) =     -7.36423  eV     1   --> G_5            
     e( 44 - 45) =     -7.36393  eV     2   --> G_4            
     e( 44 - 45) =     -7.36393  eV     2   --> G_6            
     e( 46 - 46) =     -7.36284  eV     1   --> G_6            
     e( 47 - 48) =     -7.36254  eV     2   --> G_4            
     e( 47 - 48) =     -7.36254  eV     2   --> G_5            
     e( 49 - 49) =     -7.32597  eV     1   --> G_5            
     e( 50 - 51) =     -7.32568  eV     2   --> G_4            
     e( 50 - 51) =     -7.32568  eV     2   --> G_6            
     e( 52 - 52) =     -7.31954  eV     1   --> G_4            
     e( 53 - 54) =     -7.31926  eV     2   --> G_5            
     e( 53 - 54) =     -7.31926  eV     2   --> G_6            
     e( 55 - 55) =     -7.21225  eV     1   --> G_6            
     e( 56 - 57) =     -7.21198  eV     2   --> G_4            
     e( 56 - 57) =     -7.21198  eV     2   --> G_5            
     e( 58 - 58) =     -7.20205  eV     1   --> G_5            
     e( 59 - 60) =     -7.20179  eV     2   --> G_4            
     e( 59 - 60) =     -7.20179  eV     2   --> G_6            
     e( 61 - 61) =     -5.38627  eV     1   --> G_4            
     e( 62 - 63) =     -5.38613  eV     2   --> G_5            
     e( 62 - 63) =     -5.38613  eV     2   --> G_6            
     e( 64 - 64) =     -5.36081  eV     1   --> G_6            
     e( 65 - 66) =     -5.36067  eV     2   --> G_4            
     e( 65 - 66) =     -5.36067  eV     2   --> G_5            
     e( 67 - 67) =     -5.31141  eV     1   --> G_4            
     e( 68 - 69) =     -5.31128  eV     2   --> G_5            
     e( 68 - 69) =     -5.31128  eV     2   --> G_6            
     e( 70 - 70) =     -5.30038  eV     1   --> G_6            
     e( 71 - 72) =     -5.30025  eV     2   --> G_4            
     e( 71 - 72) =     -5.30025  eV     2   --> G_5            
     e( 73 - 73) =      0.35689  eV     1   --> G_6            
     e( 74 - 75) =      0.35721  eV     2   --> G_4            
     e( 74 - 75) =      0.35721  eV     2   --> G_5            
     e( 76 - 76) =      0.41921  eV     1   --> G_5            
     e( 77 - 78) =      0.41954  eV     2   --> G_4            
     e( 77 - 78) =      0.41954  eV     2   --> G_6            
     e( 79 - 79) =      1.08293  eV     1   --> G_6            
     e( 80 - 81) =      1.08313  eV     2   --> G_4            
     e( 80 - 81) =      1.08313  eV     2   --> G_5            
     e( 82 - 82) =      1.18166  eV     1   --> G_5            
     e( 83 - 84) =      1.18185  eV     2   --> G_4            
     e( 83 - 84) =      1.18185  eV     2   --> G_6            
     e( 85 - 85) =      2.61668  eV     1   -->   ?
     e( 86 - 87) =      2.61686  eV     2   -->   ?
     e( 88 - 88) =      2.66852  eV     1   -->   ?
     e( 89 - 90) =      2.66872  eV     2   -->   ?
     e( 91 - 91) =      2.90668  eV     1   -->   ?
     e( 92 - 93) =      2.90683  eV     2   -->   ?
     e( 94 - 94) =      2.98959  eV     1   -->   ?
     e( 95 - 96) =      2.98975  eV     2   -->   ?
     e( 97 - 97) =      3.97197  eV     1   -->   ?
     e( 98 - 99) =      3.97208  eV     2   -->   ?
     e(100 -100) =      4.03125  eV     1   -->   ?
     e(101 -102) =      4.03135  eV     2   -->   ?
     e(103 -105) =      4.40018  eV     3   --> G_4            
     e(103 -105) =      4.40018  eV     3   --> G_5            
     e(103 -105) =      4.40018  eV     3   --> G_6            
     e(106 -108) =      4.44234  eV     3   --> G_4            
     e(106 -108) =      4.44234  eV     3   --> G_5            
     e(106 -108) =      4.44234  eV     3   --> G_6            
     e(109 -109) =      4.82497  eV     1   -->   ?
     e(110 -111) =      4.82513  eV     2   -->   ?
     e(112 -112) =      4.88835  eV     1   -->   ?
     e(113 -114) =      4.88854  eV     2   -->   ?
     e(115 -115) =      8.24914  eV     1   -->   ?
     e(116 -117) =      8.24928  eV     2   -->   ?
     e(118 -118) =      8.27801  eV     1   -->   ?
     e(119 -120) =      8.27816  eV     2   -->   ?

 **************************************************************************

 **************************************************************************

                    xk=(   0.33333,   0.57734,   0.01979  )

     Band symmetry, C_3 (3)     double point group:

     e(  1 -  1) =     -8.42159  eV     1   --> G_4            
     e(  2 -  3) =     -8.42130  eV     2   --> G_5            
     e(  2 -  3) =     -8.42130  eV     2   --> G_6            
     e(  4 -  4) =     -8.40369  eV     1   --> G_4            
     e(  5 -  6) =     -8.40339  eV     2   --> G_5            
     e(  5 -  6) =     -8.40339  eV     2   --> G_6            
     e(  7 -  7) =     -8.39349  eV     1   --> G_6            
     e(  8 -  9) =     -8.39318  eV     2   --> G_4            
     e(  8 -  9) =     -8.39318  eV     2   --> G_5            
     e( 10 - 10) =     -8.38179  eV     1   --> G_6            
     e( 11 - 12) =     -8.38149  eV     2   --> G_4            
     e( 11 - 12) =     -8.38149  eV     2   --> G_5            
     e( 13 - 13) =     -8.30747  eV     1   --> G_5            
     e( 14 - 15) =     -8.30715  eV     2   --> G_4            
     e( 14 - 15) =     -8.30715  eV     2   --> G_6            
     e( 16 - 16) =     -8.23733  eV     1   --> G_5            
     e( 17 - 18) =     -8.23702  eV     2   --> G_4            
     e( 17 - 18) =     -8.23702  eV     2   --> G_6            
     e( 19 - 19) =     -8.21549  eV     1   --> G_4            
     e( 20 - 21) =     -8.21520  eV     2   --> G_5            
     e( 20 - 21) =     -8.21520  eV     2   --> G_6            
     e( 22 - 22) =     -8.20757  eV     1   --> G_4            
     e( 23 - 24) =     -8.20728  eV     2   --> G_5            
     e( 23 - 24) =     -8.20728  eV     2   --> G_6            
     e( 25 - 25) =     -7.74908  eV     1   --> G_6            
     e( 26 - 27) =     -7.74877  eV     2   --> G_4            
     e( 26 - 27) =     -7.74877  eV     2   --> G_5            
     e( 28 - 28) =     -7.58955  eV     1   --> G_6            
     e( 29 - 30) =     -7.58926  eV     2   --> G_4            
     e( 29 - 30) =     -7.58926  eV     2   --> G_5            
     e( 31 - 31) =     -7.58801  eV     1   --> G_4            
     e( 32 - 33) =     -7.58772  eV     2   --> G_5            
     e( 32 - 33) =     -7.58772  eV     2   --> G_6            
     e( 34 - 34) =     -7.58505  eV     1   --> G_4            
     e( 35 - 36) =     -7.58475  eV     2   --> G_5            
     e( 35 - 36) =     -7.58475  eV     2   --> G_6            
     e( 37 - 37) =     -7.46890  eV     1   --> G_5            
     e( 38 - 39) =     -7.46860  eV     2   --> G_4            
     e( 38 - 39) =     -7.46860  eV     2   --> G_6            
     e( 40 - 40) =     -7.38533  eV     1   --> G_4            
     e( 41 - 42) =     -7.38505  eV     2   --> G_5            
     e( 41 - 42) =     -7.38505  eV     2   --> G_6            
     e( 43 - 43) =     -7.36423  eV     1   --> G_5            
     e( 44 - 45) =     -7.36393  eV     2   --> G_4            
     e( 44 - 45) =     -7.36393  eV     2   --> G_6            
     e( 46 - 46) =     -7.36284  eV     1   --> G_6            
     e( 47 - 48) =     -7.36254  eV     2   --> G_4            
     e( 47 - 48) =     -7.36254  eV     2   --> G_5            
     e( 49 - 49) =     -7.32597  eV     1   --> G_5            
     e( 50 - 51) =     -7.32568  eV     2   --> G_4            
     e( 50 - 51) =     -7.32568  eV     2   --> G_6            
     e( 52 - 52) =     -7.31954  eV     1   --> G_4            
     e( 53 - 54) =     -7.31926  eV     2   --> G_5            
     e( 53 - 54) =     -7.31926  eV     2   --> G_6            
     e( 55 - 55) =     -7.21225  eV     1   --> G_6            
     e( 56 - 57) =     -7.21198  eV     2   --> G_4            
     e( 56 - 57) =     -7.21198  eV     2   --> G_5            
     e( 58 - 58) =     -7.20205  eV     1   --> G_5            
     e( 59 - 60) =     -7.20179  eV     2   --> G_4            
     e( 59 - 60) =     -7.20179  eV     2   --> G_6            
     e( 61 - 61) =     -5.38627  eV     1   --> G_4            
     e( 62 - 63) =     -5.38613  eV     2   --> G_5            
     e( 62 - 63) =     -5.38613  eV     2   --> G_6            
     e( 64 - 64) =     -5.36081  eV     1   --> G_6            
     e( 65 - 66) =     -5.36067  eV     2   --> G_4            
     e( 65 - 66) =     -5.36067  eV     2   --> G_5            
     e( 67 - 67) =     -5.31141  eV     1   --> G_4            
     e( 68 - 69) =     -5.31128  eV     2   --> G_5            
     e( 68 - 69) =     -5.31128  eV     2   --> G_6            
     e( 70 - 70) =     -5.30038  eV     1   --> G_6            
     e( 71 - 72) =     -5.30025  eV     2   --> G_4            
     e( 71 - 72) =     -5.30025  eV     2   --> G_5            
     e( 73 - 73) =      0.35689  eV     1   --> G_6            
     e( 74 - 75) =      0.35721  eV     2   --> G_4            
     e( 74 - 75) =      0.35721  eV     2   --> G_5            
     e( 76 - 76) =      0.41921  eV     1   --> G_5            
     e( 77 - 78) =      0.41954  eV     2   --> G_4            
     e( 77 - 78) =      0.41954  eV     2   --> G_6            
     e( 79 - 79) =      1.08293  eV     1   --> G_6            
     e( 80 - 81) =      1.08313  eV     2   --> G_4            
     e( 80 - 81) =      1.08313  eV     2   --> G_5            
     e( 82 - 82) =      1.18166  eV     1   --> G_5            
     e( 83 - 84) =      1.18185  eV     2   --> G_4            
     e( 83 - 84) =      1.18185  eV     2   --> G_6            
     e( 85 - 85) =      2.61656  eV     1   -->   ?
     e( 86 - 87) =      2.61674  eV     2   -->   ?
     e( 88 - 88) =      2.66819  eV     1   -->   ?
     e( 89 - 90) =      2.66840  eV     2   --> G_4            
     e( 89 - 90) =      2.66840  eV     2   -->   ?
     e( 91 - 91) =      2.90723  eV     1   -->   ?
     e( 92 - 93) =      2.90738  eV     2   -->   ?
     e( 94 - 94) =      2.98993  eV     1   -->   ?
     e( 95 - 96) =      2.99009  eV     2   -->   ?
     e( 97 - 97) =      3.96995  eV     1   -->   ?
     e( 98 - 99) =      3.97006  eV     2   -->   ?
     e(100 -100) =      4.02954  eV     1   -->   ?
     e(101 -102) =      4.02964  eV     2   -->   ?
     e(103 -105) =      4.40150  eV     3   --> G_4            
     e(103 -105) =      4.40150  eV     3   --> G_5            
     e(103 -105) =      4.40150  eV     3   --> G_6            
     e(106 -108) =      4.44818  eV     3   --> G_4            
     e(106 -108) =      4.44818  eV     3   --> G_5            
     e(106 -108) =      4.44818  eV     3   --> G_6            
     e(109 -109) =      4.82217  eV     1   -->   ?
     e(110 -111) =      4.82233  eV     2   -->   ?
     e(112 -112) =      4.88689  eV     1   -->   ?
     e(113 -114) =      4.88708  eV     2   -->   ?
     e(115 -115) =      8.25616  eV     1   -->   ?
     e(116 -117) =      8.25630  eV     2   -->   ?
     e(118 -118) =      8.28549  eV     1   -->   ?
     e(119 -120) =      8.28564  eV     2   -->   ?

 **************************************************************************

 **************************************************************************

                    xk=(   0.33333,   0.57734,  -0.00000  )

     Band symmetry, C_3 (3)     double point group:

     e(  1 -  1) =     -8.42159  eV     1   --> G_4            
     e(  2 -  3) =     -8.42130  eV     2   --> G_5            
     e(  2 -  3) =     -8.42130  eV     2   --> G_6            
     e(  4 -  4) =     -8.40369  eV     1   --> G_4            
     e(  5 -  6) =     -8.40339  eV     2   --> G_5            
     e(  5 -  6) =     -8.40339  eV     2   --> G_6            
     e(  7 -  7) =     -8.39349  eV     1   --> G_6            
     e(  8 -  9) =     -8.39318  eV     2   --> G_4            
     e(  8 -  9) =     -8.39318  eV     2   --> G_5            
     e( 10 - 10) =     -8.38179  eV     1   --> G_6            
     e( 11 - 12) =     -8.38149  eV     2   --> G_4            
     e( 11 - 12) =     -8.38149  eV     2   --> G_5            
     e( 13 - 13) =     -8.30747  eV     1   --> G_5            
     e( 14 - 15) =     -8.30715  eV     2   --> G_4            
     e( 14 - 15) =     -8.30715  eV     2   --> G_6            
     e( 16 - 16) =     -8.23733  eV     1   --> G_5            
     e( 17 - 18) =     -8.23702  eV     2   --> G_4            
     e( 17 - 18) =     -8.23702  eV     2   --> G_6            
     e( 19 - 19) =     -8.21549  eV     1   --> G_4            
     e( 20 - 21) =     -8.21520  eV     2   --> G_5            
     e( 20 - 21) =     -8.21520  eV     2   --> G_6            
     e( 22 - 22) =     -8.20757  eV     1   --> G_4            
     e( 23 - 24) =     -8.20728  eV     2   --> G_5            
     e( 23 - 24) =     -8.20728  eV     2   --> G_6            
     e( 25 - 25) =     -7.74908  eV     1   --> G_6            
     e( 26 - 27) =     -7.74877  eV     2   --> G_4            
     e( 26 - 27) =     -7.74877  eV     2   --> G_5            
     e( 28 - 28) =     -7.58955  eV     1   --> G_6            
     e( 29 - 30) =     -7.58926  eV     2   --> G_4            
     e( 29 - 30) =     -7.58926  eV     2   --> G_5            
     e( 31 - 31) =     -7.58801  eV     1   --> G_4            
     e( 32 - 33) =     -7.58772  eV     2   --> G_5            
     e( 32 - 33) =     -7.58772  eV     2   --> G_6            
     e( 34 - 34) =     -7.58505  eV     1   --> G_4            
     e( 35 - 36) =     -7.58476  eV     2   --> G_5            
     e( 35 - 36) =     -7.58476  eV     2   --> G_6            
     e( 37 - 37) =     -7.46890  eV     1   --> G_5            
     e( 38 - 39) =     -7.46860  eV     2   --> G_4            
     e( 38 - 39) =     -7.46860  eV     2   --> G_6            
     e( 40 - 40) =     -7.38533  eV     1   --> G_4            
     e( 41 - 42) =     -7.38505  eV     2   --> G_5            
     e( 41 - 42) =     -7.38505  eV     2   --> G_6            
     e( 43 - 43) =     -7.36423  eV     1   --> G_5            
     e( 44 - 45) =     -7.36393  eV     2   --> G_4            
     e( 44 - 45) =     -7.36393  eV     2   --> G_6            
     e( 46 - 46) =     -7.36284  eV     1   --> G_6            
     e( 47 - 48) =     -7.36254  eV     2   --> G_4            
     e( 47 - 48) =     -7.36254  eV     2   --> G_5            
     e( 49 - 49) =     -7.32597  eV     1   --> G_5            
     e( 50 - 51) =     -7.32568  eV     2   --> G_4            
     e( 50 - 51) =     -7.32568  eV     2   --> G_6            
     e( 52 - 52) =     -7.31954  eV     1   --> G_4            
     e( 53 - 54) =     -7.31926  eV     2   --> G_5            
     e( 53 - 54) =     -7.31926  eV     2   --> G_6            
     e( 55 - 55) =     -7.21225  eV     1   --> G_6            
     e( 56 - 57) =     -7.21198  eV     2   --> G_4            
     e( 56 - 57) =     -7.21198  eV     2   --> G_5            
     e( 58 - 58) =     -7.20205  eV     1   --> G_5            
     e( 59 - 60) =     -7.20179  eV     2   --> G_4            
     e( 59 - 60) =     -7.20179  eV     2   --> G_6            
     e( 61 - 61) =     -5.38627  eV     1   --> G_4            
     e( 62 - 63) =     -5.38613  eV     2   --> G_5            
     e( 62 - 63) =     -5.38613  eV     2   --> G_6            
     e( 64 - 64) =     -5.36081  eV     1   --> G_6            
     e( 65 - 66) =     -5.36067  eV     2   --> G_4            
     e( 65 - 66) =     -5.36067  eV     2   --> G_5            
     e( 67 - 67) =     -5.31141  eV     1   --> G_4            
     e( 68 - 69) =     -5.31128  eV     2   --> G_5            
     e( 68 - 69) =     -5.31128  eV     2   --> G_6            
     e( 70 - 70) =     -5.30038  eV     1   --> G_6            
     e( 71 - 72) =     -5.30025  eV     2   --> G_4            
     e( 71 - 72) =     -5.30025  eV     2   --> G_5            
     e( 73 - 73) =      0.35689  eV     1   --> G_6            
     e( 74 - 75) =      0.35721  eV     2   --> G_4            
     e( 74 - 75) =      0.35721  eV     2   --> G_5            
     e( 76 - 76) =      0.41921  eV     1   --> G_5            
     e( 77 - 78) =      0.41954  eV     2   --> G_4            
     e( 77 - 78) =      0.41954  eV     2   --> G_6            
     e( 79 - 79) =      1.08293  eV     1   --> G_6            
     e( 80 - 81) =      1.08313  eV     2   --> G_4            
     e( 80 - 81) =      1.08313  eV     2   --> G_5            
     e( 82 - 82) =      1.18166  eV     1   --> G_5            
     e( 83 - 84) =      1.18185  eV     2   --> G_4            
     e( 83 - 84) =      1.18185  eV     2   --> G_6            
     e( 85 - 85) =      2.61651  eV     1   -->   ?
     e( 86 - 87) =      2.61670  eV     2   -->   ?
     e( 88 - 88) =      2.66806  eV     1   -->   ?
     e( 89 - 90) =      2.66826  eV     2   --> G_4            
     e( 89 - 90) =      2.66826  eV     2   -->   ?
     e( 91 - 91) =      2.90746  eV     1   -->   ?
     e( 92 - 93) =      2.90761  eV     2   -->   ?
     e( 94 - 94) =      2.99007  eV     1   -->   ?
     e( 95 - 96) =      2.99023  eV     2   -->   ?
     e( 97 - 97) =      3.96912  eV     1   -->   ?
     e( 98 - 99) =      3.96923  eV     2   -->   ?
     e(100 -100) =      4.02883  eV     1   -->   ?
     e(101 -102) =      4.02894  eV     2   -->   ?
     e(103 -105) =      4.40211  eV     3   --> G_4            
     e(103 -105) =      4.40211  eV     3   --> G_5            
     e(103 -105) =      4.40211  eV     3   --> G_6            
     e(106 -108) =      4.45054  eV     3   --> G_4            
     e(106 -108) =      4.45054  eV     3   --> G_5            
     e(106 -108) =      4.45054  eV     3   --> G_6            
     e(109 -109) =      4.82099  eV     1   -->   ?
     e(110 -111) =      4.82116  eV     2   -->   ?
     e(112 -112) =      4.88628  eV     1   -->   ?
     e(113 -114) =      4.88647  eV     2   -->   ?
     e(115 -115) =      8.25914  eV     1   -->   ?
     e(116 -117) =      8.25928  eV     2   -->   ?
     e(118 -118) =      8.28868  eV     1   -->   ?
     e(119 -120) =      8.28884  eV     2   -->   ?

 **************************************************************************
 
     BANDS        : 34m18.15s CPU    35m38.80s WALL

 
   This run was terminated on:  16: 6:17   7Apr2022            

=------------------------------------------------------------------------------=
   JOB DONE.
=------------------------------------------------------------------------------=
