
     Program PWSCF v.6.1 (svn rev. 13369) starts on  6Apr2022 at 19:45:25 

     This program is part of the open-source Quantum ESPRESSO suite
     for quantum simulation of materials; please cite
         "P. Giannozzi et al., J. Phys.:Condens. Matter 21 395502 (2009);
          URL http://www.quantum-espresso.org", 
     in publications or presentations arising from this work. More details at
     http://www.quantum-espresso.org/quote

     Parallel version (MPI), running on    48 processors
     R & G space division:  proc/nbgrp/npool/nimage =      48
     Reading input from InSegamma_relax.in
Warning: card &IONS ignored
Warning: card / ignored
Warning: card &CELL ignored
Warning: card     CELL_DOFREE='ALL' ignored
Warning: card / ignored

     Current dimensions of program PWSCF are:
     Max number of different atomic species (ntypx) = 10
     Max number of k-points (npk) =  40000
     Max angular momentum in pseudopotentials (lmaxx) =  3

     IMPORTANT: XC functional enforced from input :
     Exchange-correlation      = SLA+PW+PSX+PSC ( 1  4 10  8 0 0)
     Any further DFT definition will be discarded
     Please, verify this is what you really want


     Subspace diagonalization in iterative solution of the eigenvalue problem:
     one sub-group per band group will be used
     scalapack distributed-memory algorithm (size of sub-group:  4*  4 procs)

     Found symmetry operation: I + ( -0.3333  0.3333  0.3333)
     This is a supercell, fractional translations are disabled
 
     Parallelization info
     --------------------
     sticks:   dense  smooth     PW     G-vecs:    dense   smooth      PW
     Min          49      49     13                12411    12411    1751
     Max          50      50     14                12448    12448    1790
     Sum        2395    2395    649               596901   596901   85131
 


     bravais-lattice index     =            0
     lattice parameter (alat)  =       7.6027  a.u.
     unit-cell volume          =    2403.4339 (a.u.)^3
     number of atoms/cell      =           12
     number of atomic types    =            2
     number of electrons       =       114.00
     number of Kohn-Sham states=          114
     kinetic-energy cutoff     =     150.0000  Ry
     charge density cutoff     =     600.0000  Ry
     convergence threshold     =      7.0E-10
     mixing beta               =       0.7000
     number of iterations used =            8  plain     mixing
     Exchange-correlation      = SLA+PW+PSX+PSC ( 1  4 10  8 0 0)
     Non magnetic calculation with spin-orbit


     celldm(1)=   7.602730  celldm(2)=   0.000000  celldm(3)=   0.000000
     celldm(4)=   0.000000  celldm(5)=   0.000000  celldm(6)=   0.000000

     crystal axes: (cart. coord. in units of alat)
               a(1) = (   1.000000   0.000000   0.000000 )  
               a(2) = (  -0.500000   0.866025   0.000000 )  
               a(3) = (   0.000000   0.000000   6.315283 )  

     reciprocal axes: (cart. coord. in units 2 pi/alat)
               b(1) = (  1.000000  0.577350 -0.000000 )  
               b(2) = (  0.000000  1.154701 -0.000000 )  
               b(3) = (  0.000000  0.000000  0.158346 )  


     PseudoPot. # 1 for In read from file:
     /home/mclaro/pseudo/ONCVPSP/sg15/In_ONCV_PBE_fr.upf
     MD5 check sum: eedf9510f5d1e34334b25b4623707d2f
     Pseudo is Norm-conserving, Zval = 13.0
     Generated using ONCVPSP code by D. R. Hamann
     Using radial grid of 1986 points, 10 beta functions with: 
                l(1) =   0
                l(2) =   0
                l(3) =   1
                l(4) =   1
                l(5) =   1
                l(6) =   1
                l(7) =   2
                l(8) =   2
                l(9) =   2
               l(10) =   2

     PseudoPot. # 2 for Se read from file:
     /home/mclaro/pseudo/ONCVPSP/sg15/Se_ONCV_PBE_fr.upf
     MD5 check sum: cfe1483cd39788255e734f67871220b5
     Pseudo is Norm-conserving, Zval =  6.0
     Generated using ONCVPSP code by D. R. Hamann
     Using radial grid of 1214 points, 10 beta functions with: 
                l(1) =   0
                l(2) =   0
                l(3) =   1
                l(4) =   1
                l(5) =   1
                l(6) =   1
                l(7) =   2
                l(8) =   2
                l(9) =   2
               l(10) =   2

     atomic species   valence    mass     pseudopotential
        In            13.00   114.81800     In( 1.00)
        Se             6.00    78.96000     Se( 1.00)

      6 Sym. Ops. (no inversion) found


                                    s                        frac. trans.

      isym =  1     identity                                     

 cryst.   s( 1) = (     1          0          0      )
                  (     0          1          0      )
                  (     0          0          1      )

 cart.    s( 1) = (  1.0000000  0.0000000 -0.0000000 )
                  (  0.0000000  1.0000000  0.0000000 )
                  (  0.0000000  0.0000000  1.0000000 )


      isym =  2     120 deg rotation - cryst. axis [0,0,1]       

 cryst.   s( 2) = (     0          1          0      )
                  (    -1         -1          0      )
                  (     0          0          1      )

 cart.    s( 2) = ( -0.5000000 -0.8660254  0.0000000 )
                  (  0.8660254 -0.5000000  0.0000000 )
                  (  0.0000000  0.0000000  1.0000000 )


      isym =  3     120 deg rotation - cryst. axis [0,0,-1]      

 cryst.   s( 3) = (    -1         -1          0      )
                  (     1          0          0      )
                  (     0          0          1      )

 cart.    s( 3) = ( -0.5000000  0.8660254  0.0000000 )
                  ( -0.8660254 -0.5000000  0.0000000 )
                  (  0.0000000  0.0000000  1.0000000 )


      isym =  4     inv. 180 deg rotation - cart. axis [1,0,0]   

 cryst.   s( 4) = (    -1          0          0      )
                  (     1          1          0      )
                  (     0          0          1      )

 cart.    s( 4) = ( -1.0000000  0.0000000  0.0000000 )
                  (  0.0000000  1.0000000  0.0000000 )
                  (  0.0000000  0.0000000  1.0000000 )


      isym =  5     inv. 180 deg rotation - cryst. axis [0,1,0]  

 cryst.   s( 5) = (     1          1          0      )
                  (     0         -1          0      )
                  (     0          0          1      )

 cart.    s( 5) = (  0.5000000  0.8660254 -0.0000000 )
                  (  0.8660254 -0.5000000  0.0000000 )
                  (  0.0000000  0.0000000  1.0000000 )


      isym =  6     inv. 180 deg rotation - cryst. axis [1,1,0]  

 cryst.   s( 6) = (     0         -1          0      )
                  (    -1          0          0      )
                  (     0          0          1      )

 cart.    s( 6) = (  0.5000000 -0.8660254  0.0000000 )
                  ( -0.8660254 -0.5000000  0.0000000 )
                  (  0.0000000  0.0000000  1.0000000 )


   Cartesian axes

     site n.     atom                  positions (alat units)
         1           Se  tau(   1) = (   0.0000000   0.0000000   1.4353724  )
         2           Se  tau(   2) = (  -0.0000000   0.5773503   0.6676935  )
         3           Se  tau(   3) = (   0.5000000   0.2886751   3.5404837  )
         4           Se  tau(   4) = (   0.0000000   0.0000000   2.7727680  )
         5           Se  tau(   5) = (  -0.0000000   0.5773503   5.6455875  )
         6           Se  tau(   6) = (   0.5000000   0.2886751   4.8778471  )
         7           In  tau(   7) = (   0.5000000   0.2886751   1.7564068  )
         8           In  tau(   8) = (   0.0000000   0.0000000   0.3465144  )
         9           In  tau(   9) = (  -0.0000000   0.5773503   3.8615117  )
        10           In  tau(  10) = (   0.5000000   0.2886751   2.4515872  )
        11           In  tau(  11) = (   0.0000000   0.0000000   5.9666206  )
        12           In  tau(  12) = (  -0.0000000   0.5773503   4.5566755  )

   Crystallographic axes

     site n.     atom                  positions (cryst. coord.)
         1           Se  tau(   1) = ( -0.0000000  0.0000000  0.2272855  )
         2           Se  tau(   2) = (  0.3333333  0.6666667  0.1057266  )
         3           Se  tau(   3) = (  0.6666667  0.3333333  0.5606215  )
         4           Se  tau(   4) = ( -0.0000000  0.0000000  0.4390568  )
         5           Se  tau(   5) = (  0.3333333  0.6666667  0.8939564  )
         6           Se  tau(   6) = (  0.6666667  0.3333333  0.7723877  )
         7           In  tau(   7) = (  0.6666667  0.3333333  0.2781200  )
         8           In  tau(   8) = ( -0.0000000  0.0000000  0.0548692  )
         9           In  tau(   9) = (  0.3333333  0.6666667  0.6114550  )
        10           In  tau(  10) = (  0.6666667  0.3333333  0.3881991  )
        11           In  tau(  11) = ( -0.0000000  0.0000000  0.9447907  )
        12           In  tau(  12) = (  0.3333333  0.6666667  0.7215315  )

     number of k points=   119
                       cart. coord. in units 2pi/alat
        k(    1) = (   0.0000000   0.0000000   0.0000000), wk =   0.0008889
        k(    2) = (   0.0000000   0.0000000   0.0316692), wk =   0.0017778
        k(    3) = (   0.0000000   0.0000000   0.0633384), wk =   0.0017778
        k(    4) = (   0.0000000   0.0769800  -0.0000000), wk =   0.0053333
        k(    5) = (   0.0000000   0.0769800   0.0316692), wk =   0.0053333
        k(    6) = (   0.0000000   0.0769800   0.0633384), wk =   0.0053333
        k(    7) = (   0.0000000   0.1539601  -0.0000000), wk =   0.0053333
        k(    8) = (   0.0000000   0.1539601   0.0316692), wk =   0.0053333
        k(    9) = (   0.0000000   0.1539601   0.0633384), wk =   0.0053333
        k(   10) = (   0.0000000   0.2309401  -0.0000000), wk =   0.0053333
        k(   11) = (   0.0000000   0.2309401   0.0316692), wk =   0.0053333
        k(   12) = (   0.0000000   0.2309401   0.0633384), wk =   0.0053333
        k(   13) = (   0.0000000   0.3079201  -0.0000000), wk =   0.0053333
        k(   14) = (   0.0000000   0.3079201   0.0316692), wk =   0.0053333
        k(   15) = (   0.0000000   0.3079201   0.0633384), wk =   0.0053333
        k(   16) = (   0.0000000   0.3849002  -0.0000000), wk =   0.0053333
        k(   17) = (   0.0000000   0.3849002   0.0316692), wk =   0.0053333
        k(   18) = (   0.0000000   0.3849002   0.0633384), wk =   0.0053333
        k(   19) = (   0.0000000   0.4618802  -0.0000000), wk =   0.0053333
        k(   20) = (   0.0000000   0.4618802   0.0316692), wk =   0.0053333
        k(   21) = (   0.0000000   0.4618802   0.0633384), wk =   0.0053333
        k(   22) = (   0.0000000   0.5388603  -0.0000000), wk =   0.0053333
        k(   23) = (   0.0000000   0.5388603   0.0316692), wk =   0.0053333
        k(   24) = (   0.0000000   0.5388603   0.0633384), wk =   0.0053333
        k(   25) = (   0.0666667   0.1154701  -0.0000000), wk =   0.0053333
        k(   26) = (   0.0666667   0.1154701   0.0316692), wk =   0.0106667
        k(   27) = (   0.0666667   0.1154701   0.0633384), wk =   0.0106667
        k(   28) = (   0.0666667   0.1924501  -0.0000000), wk =   0.0106667
        k(   29) = (   0.0666667   0.1924501   0.0316692), wk =   0.0106667
        k(   30) = (   0.0666667   0.1924501   0.0633384), wk =   0.0106667
        k(   31) = (   0.0666667   0.2694301  -0.0000000), wk =   0.0106667
        k(   32) = (   0.0666667   0.2694301   0.0316692), wk =   0.0106667
        k(   33) = (   0.0666667   0.2694301   0.0633384), wk =   0.0106667
        k(   34) = (   0.0666667   0.3464102  -0.0000000), wk =   0.0106667
        k(   35) = (   0.0666667   0.3464102   0.0316692), wk =   0.0106667
        k(   36) = (   0.0666667   0.3464102   0.0633384), wk =   0.0106667
        k(   37) = (   0.0666667   0.4233902  -0.0000000), wk =   0.0106667
        k(   38) = (   0.0666667   0.4233902   0.0316692), wk =   0.0106667
        k(   39) = (   0.0666667   0.4233902   0.0633384), wk =   0.0106667
        k(   40) = (   0.0666667   0.5003702  -0.0000000), wk =   0.0106667
        k(   41) = (   0.0666667   0.5003702   0.0316692), wk =   0.0106667
        k(   42) = (   0.0666667   0.5003702   0.0633384), wk =   0.0106667
        k(   43) = (   0.0666667   0.5773503  -0.0000000), wk =   0.0053333
        k(   44) = (   0.0666667   0.5773503   0.0316692), wk =   0.0106667
        k(   45) = (   0.0666667   0.5773503   0.0633384), wk =   0.0106667
        k(   46) = (   0.1333333   0.2309401  -0.0000000), wk =   0.0053333
        k(   47) = (   0.1333333   0.2309401   0.0316692), wk =   0.0106667
        k(   48) = (   0.1333333   0.2309401   0.0633384), wk =   0.0106667
        k(   49) = (   0.1333333   0.3079201  -0.0000000), wk =   0.0106667
        k(   50) = (   0.1333333   0.3079201   0.0316692), wk =   0.0106667
        k(   51) = (   0.1333333   0.3079201   0.0633384), wk =   0.0106667
        k(   52) = (   0.1333333   0.3849002  -0.0000000), wk =   0.0106667
        k(   53) = (   0.1333333   0.3849002   0.0316692), wk =   0.0106667
        k(   54) = (   0.1333333   0.3849002   0.0633384), wk =   0.0106667
        k(   55) = (   0.1333333   0.4618802  -0.0000000), wk =   0.0106667
        k(   56) = (   0.1333333   0.4618802   0.0316692), wk =   0.0106667
        k(   57) = (   0.1333333   0.4618802   0.0633384), wk =   0.0106667
        k(   58) = (   0.1333333   0.5388603  -0.0000000), wk =   0.0106667
        k(   59) = (   0.1333333   0.5388603   0.0316692), wk =   0.0106667
        k(   60) = (   0.1333333   0.5388603   0.0633384), wk =   0.0106667
        k(   61) = (   0.2000000   0.3464102  -0.0000000), wk =   0.0053333
        k(   62) = (   0.2000000   0.3464102   0.0316692), wk =   0.0106667
        k(   63) = (   0.2000000   0.3464102   0.0633384), wk =   0.0106667
        k(   64) = (   0.2000000   0.4233902  -0.0000000), wk =   0.0106667
        k(   65) = (   0.2000000   0.4233902   0.0316692), wk =   0.0106667
        k(   66) = (   0.2000000   0.4233902   0.0633384), wk =   0.0106667
        k(   67) = (   0.2000000   0.5003702  -0.0000000), wk =   0.0106667
        k(   68) = (   0.2000000   0.5003702   0.0316692), wk =   0.0106667
        k(   69) = (   0.2000000   0.5003702   0.0633384), wk =   0.0106667
        k(   70) = (   0.2000000   0.5773503  -0.0000000), wk =   0.0053333
        k(   71) = (   0.2000000   0.5773503   0.0316692), wk =   0.0106667
        k(   72) = (   0.2000000   0.5773503   0.0633384), wk =   0.0106667
        k(   73) = (   0.2666667   0.4618802  -0.0000000), wk =   0.0053333
        k(   74) = (   0.2666667   0.4618802   0.0316692), wk =   0.0106667
        k(   75) = (   0.2666667   0.4618802   0.0633384), wk =   0.0106667
        k(   76) = (   0.2666667   0.5388603  -0.0000000), wk =   0.0106667
        k(   77) = (   0.2666667   0.5388603   0.0316692), wk =   0.0106667
        k(   78) = (   0.2666667   0.5388603   0.0633384), wk =   0.0106667
        k(   79) = (   0.3333333   0.5773503  -0.0000000), wk =   0.0017778
        k(   80) = (   0.3333333   0.5773503   0.0316692), wk =   0.0035556
        k(   81) = (   0.3333333   0.5773503   0.0633384), wk =   0.0035556
        k(   82) = (   0.0000000  -0.0769800   0.0316692), wk =   0.0053333
        k(   83) = (   0.0000000  -0.0769800   0.0633384), wk =   0.0053333
        k(   84) = (   0.0000000  -0.1539601   0.0316692), wk =   0.0053333
        k(   85) = (   0.0000000  -0.1539601   0.0633384), wk =   0.0053333
        k(   86) = (   0.0000000  -0.2309401   0.0316692), wk =   0.0053333
        k(   87) = (   0.0000000  -0.2309401   0.0633384), wk =   0.0053333
        k(   88) = (   0.0000000  -0.3079201   0.0316692), wk =   0.0053333
        k(   89) = (   0.0000000  -0.3079201   0.0633384), wk =   0.0053333
        k(   90) = (   0.0000000  -0.3849002   0.0316692), wk =   0.0053333
        k(   91) = (   0.0000000  -0.3849002   0.0633384), wk =   0.0053333
        k(   92) = (   0.0000000  -0.4618802   0.0316692), wk =   0.0053333
        k(   93) = (   0.0000000  -0.4618802   0.0633384), wk =   0.0053333
        k(   94) = (   0.0000000  -0.5388603   0.0316692), wk =   0.0053333
        k(   95) = (   0.0000000  -0.5388603   0.0633384), wk =   0.0053333
        k(   96) = (  -0.0666667  -0.1924501   0.0316692), wk =   0.0106667
        k(   97) = (  -0.0666667  -0.1924501   0.0633384), wk =   0.0106667
        k(   98) = (  -0.0666667  -0.2694301   0.0316692), wk =   0.0106667
        k(   99) = (  -0.0666667  -0.2694301   0.0633384), wk =   0.0106667
        k(  100) = (  -0.0666667  -0.3464102   0.0316692), wk =   0.0106667
        k(  101) = (  -0.0666667  -0.3464102   0.0633384), wk =   0.0106667
        k(  102) = (  -0.0666667  -0.4233902   0.0316692), wk =   0.0106667
        k(  103) = (  -0.0666667  -0.4233902   0.0633384), wk =   0.0106667
        k(  104) = (  -0.0666667  -0.5003702   0.0316692), wk =   0.0106667
        k(  105) = (  -0.0666667  -0.5003702   0.0633384), wk =   0.0106667
        k(  106) = (  -0.1333333  -0.3079201   0.0316692), wk =   0.0106667
        k(  107) = (  -0.1333333  -0.3079201   0.0633384), wk =   0.0106667
        k(  108) = (  -0.1333333  -0.3849002   0.0316692), wk =   0.0106667
        k(  109) = (  -0.1333333  -0.3849002   0.0633384), wk =   0.0106667
        k(  110) = (  -0.1333333  -0.4618802   0.0316692), wk =   0.0106667
        k(  111) = (  -0.1333333  -0.4618802   0.0633384), wk =   0.0106667
        k(  112) = (  -0.1333333  -0.5388603   0.0316692), wk =   0.0106667
        k(  113) = (  -0.1333333  -0.5388603   0.0633384), wk =   0.0106667
        k(  114) = (  -0.2000000  -0.4233902   0.0316692), wk =   0.0106667
        k(  115) = (  -0.2000000  -0.4233902   0.0633384), wk =   0.0106667
        k(  116) = (  -0.2000000  -0.5003702   0.0316692), wk =   0.0106667
        k(  117) = (  -0.2000000  -0.5003702   0.0633384), wk =   0.0106667
        k(  118) = (  -0.2666667  -0.5388603   0.0316692), wk =   0.0106667
        k(  119) = (  -0.2666667  -0.5388603   0.0633384), wk =   0.0106667

                       cryst. coord.
        k(    1) = (   0.0000000   0.0000000   0.0000000), wk =   0.0008889
        k(    2) = (   0.0000000   0.0000000   0.2000000), wk =   0.0017778
        k(    3) = (   0.0000000   0.0000000   0.4000000), wk =   0.0017778
        k(    4) = (   0.0000000   0.0666667   0.0000000), wk =   0.0053333
        k(    5) = (   0.0000000   0.0666667   0.2000000), wk =   0.0053333
        k(    6) = (   0.0000000   0.0666667   0.4000000), wk =   0.0053333
        k(    7) = (   0.0000000   0.1333333   0.0000000), wk =   0.0053333
        k(    8) = (   0.0000000   0.1333333   0.2000000), wk =   0.0053333
        k(    9) = (   0.0000000   0.1333333   0.4000000), wk =   0.0053333
        k(   10) = (   0.0000000   0.2000000   0.0000000), wk =   0.0053333
        k(   11) = (   0.0000000   0.2000000   0.2000000), wk =   0.0053333
        k(   12) = (   0.0000000   0.2000000   0.4000000), wk =   0.0053333
        k(   13) = (   0.0000000   0.2666667   0.0000000), wk =   0.0053333
        k(   14) = (   0.0000000   0.2666667   0.2000000), wk =   0.0053333
        k(   15) = (   0.0000000   0.2666667   0.4000000), wk =   0.0053333
        k(   16) = (   0.0000000   0.3333333   0.0000000), wk =   0.0053333
        k(   17) = (   0.0000000   0.3333333   0.2000000), wk =   0.0053333
        k(   18) = (   0.0000000   0.3333333   0.4000000), wk =   0.0053333
        k(   19) = (   0.0000000   0.4000000   0.0000000), wk =   0.0053333
        k(   20) = (   0.0000000   0.4000000   0.2000000), wk =   0.0053333
        k(   21) = (   0.0000000   0.4000000   0.4000000), wk =   0.0053333
        k(   22) = (   0.0000000   0.4666667   0.0000000), wk =   0.0053333
        k(   23) = (   0.0000000   0.4666667   0.2000000), wk =   0.0053333
        k(   24) = (   0.0000000   0.4666667   0.4000000), wk =   0.0053333
        k(   25) = (   0.0666667   0.0666667   0.0000000), wk =   0.0053333
        k(   26) = (   0.0666667   0.0666667   0.2000000), wk =   0.0106667
        k(   27) = (   0.0666667   0.0666667   0.4000000), wk =   0.0106667
        k(   28) = (   0.0666667   0.1333333   0.0000000), wk =   0.0106667
        k(   29) = (   0.0666667   0.1333333   0.2000000), wk =   0.0106667
        k(   30) = (   0.0666667   0.1333333   0.4000000), wk =   0.0106667
        k(   31) = (   0.0666667   0.2000000   0.0000000), wk =   0.0106667
        k(   32) = (   0.0666667   0.2000000   0.2000000), wk =   0.0106667
        k(   33) = (   0.0666667   0.2000000   0.4000000), wk =   0.0106667
        k(   34) = (   0.0666667   0.2666667   0.0000000), wk =   0.0106667
        k(   35) = (   0.0666667   0.2666667   0.2000000), wk =   0.0106667
        k(   36) = (   0.0666667   0.2666667   0.4000000), wk =   0.0106667
        k(   37) = (   0.0666667   0.3333333   0.0000000), wk =   0.0106667
        k(   38) = (   0.0666667   0.3333333   0.2000000), wk =   0.0106667
        k(   39) = (   0.0666667   0.3333333   0.4000000), wk =   0.0106667
        k(   40) = (   0.0666667   0.4000000   0.0000000), wk =   0.0106667
        k(   41) = (   0.0666667   0.4000000   0.2000000), wk =   0.0106667
        k(   42) = (   0.0666667   0.4000000   0.4000000), wk =   0.0106667
        k(   43) = (   0.0666667   0.4666667   0.0000000), wk =   0.0053333
        k(   44) = (   0.0666667   0.4666667   0.2000000), wk =   0.0106667
        k(   45) = (   0.0666667   0.4666667   0.4000000), wk =   0.0106667
        k(   46) = (   0.1333333   0.1333333   0.0000000), wk =   0.0053333
        k(   47) = (   0.1333333   0.1333333   0.2000000), wk =   0.0106667
        k(   48) = (   0.1333333   0.1333333   0.4000000), wk =   0.0106667
        k(   49) = (   0.1333333   0.2000000   0.0000000), wk =   0.0106667
        k(   50) = (   0.1333333   0.2000000   0.2000000), wk =   0.0106667
        k(   51) = (   0.1333333   0.2000000   0.4000000), wk =   0.0106667
        k(   52) = (   0.1333333   0.2666667   0.0000000), wk =   0.0106667
        k(   53) = (   0.1333333   0.2666667   0.2000000), wk =   0.0106667
        k(   54) = (   0.1333333   0.2666667   0.4000000), wk =   0.0106667
        k(   55) = (   0.1333333   0.3333333   0.0000000), wk =   0.0106667
        k(   56) = (   0.1333333   0.3333333   0.2000000), wk =   0.0106667
        k(   57) = (   0.1333333   0.3333333   0.4000000), wk =   0.0106667
        k(   58) = (   0.1333333   0.4000000   0.0000000), wk =   0.0106667
        k(   59) = (   0.1333333   0.4000000   0.2000000), wk =   0.0106667
        k(   60) = (   0.1333333   0.4000000   0.4000000), wk =   0.0106667
        k(   61) = (   0.2000000   0.2000000   0.0000000), wk =   0.0053333
        k(   62) = (   0.2000000   0.2000000   0.2000000), wk =   0.0106667
        k(   63) = (   0.2000000   0.2000000   0.4000000), wk =   0.0106667
        k(   64) = (   0.2000000   0.2666667   0.0000000), wk =   0.0106667
        k(   65) = (   0.2000000   0.2666667   0.2000000), wk =   0.0106667
        k(   66) = (   0.2000000   0.2666667   0.4000000), wk =   0.0106667
        k(   67) = (   0.2000000   0.3333333  -0.0000000), wk =   0.0106667
        k(   68) = (   0.2000000   0.3333333   0.2000000), wk =   0.0106667
        k(   69) = (   0.2000000   0.3333333   0.4000000), wk =   0.0106667
        k(   70) = (   0.2000000   0.4000000   0.0000000), wk =   0.0053333
        k(   71) = (   0.2000000   0.4000000   0.2000000), wk =   0.0106667
        k(   72) = (   0.2000000   0.4000000   0.4000000), wk =   0.0106667
        k(   73) = (   0.2666667   0.2666667   0.0000000), wk =   0.0053333
        k(   74) = (   0.2666667   0.2666667   0.2000000), wk =   0.0106667
        k(   75) = (   0.2666667   0.2666667   0.4000000), wk =   0.0106667
        k(   76) = (   0.2666667   0.3333333   0.0000000), wk =   0.0106667
        k(   77) = (   0.2666667   0.3333333   0.2000000), wk =   0.0106667
        k(   78) = (   0.2666667   0.3333333   0.4000000), wk =   0.0106667
        k(   79) = (   0.3333333   0.3333333   0.0000000), wk =   0.0017778
        k(   80) = (   0.3333333   0.3333333   0.2000000), wk =   0.0035556
        k(   81) = (   0.3333333   0.3333333   0.4000000), wk =   0.0035556
        k(   82) = (   0.0000000  -0.0666667   0.2000000), wk =   0.0053333
        k(   83) = (   0.0000000  -0.0666667   0.4000000), wk =   0.0053333
        k(   84) = (   0.0000000  -0.1333333   0.2000000), wk =   0.0053333
        k(   85) = (   0.0000000  -0.1333333   0.4000000), wk =   0.0053333
        k(   86) = (   0.0000000  -0.2000000   0.2000000), wk =   0.0053333
        k(   87) = (   0.0000000  -0.2000000   0.4000000), wk =   0.0053333
        k(   88) = (   0.0000000  -0.2666667   0.2000000), wk =   0.0053333
        k(   89) = (   0.0000000  -0.2666667   0.4000000), wk =   0.0053333
        k(   90) = (   0.0000000  -0.3333333   0.2000000), wk =   0.0053333
        k(   91) = (   0.0000000  -0.3333333   0.4000000), wk =   0.0053333
        k(   92) = (   0.0000000  -0.4000000   0.2000000), wk =   0.0053333
        k(   93) = (   0.0000000  -0.4000000   0.4000000), wk =   0.0053333
        k(   94) = (   0.0000000  -0.4666667   0.2000000), wk =   0.0053333
        k(   95) = (   0.0000000  -0.4666667   0.4000000), wk =   0.0053333
        k(   96) = (  -0.0666667  -0.1333333   0.2000000), wk =   0.0106667
        k(   97) = (  -0.0666667  -0.1333333   0.4000000), wk =   0.0106667
        k(   98) = (  -0.0666667  -0.2000000   0.2000000), wk =   0.0106667
        k(   99) = (  -0.0666667  -0.2000000   0.4000000), wk =   0.0106667
        k(  100) = (  -0.0666667  -0.2666667   0.2000000), wk =   0.0106667
        k(  101) = (  -0.0666667  -0.2666667   0.4000000), wk =   0.0106667
        k(  102) = (  -0.0666667  -0.3333333   0.2000000), wk =   0.0106667
        k(  103) = (  -0.0666667  -0.3333333   0.4000000), wk =   0.0106667
        k(  104) = (  -0.0666667  -0.4000000   0.2000000), wk =   0.0106667
        k(  105) = (  -0.0666667  -0.4000000   0.4000000), wk =   0.0106667
        k(  106) = (  -0.1333333  -0.2000000   0.2000000), wk =   0.0106667
        k(  107) = (  -0.1333333  -0.2000000   0.4000000), wk =   0.0106667
        k(  108) = (  -0.1333333  -0.2666667   0.2000000), wk =   0.0106667
        k(  109) = (  -0.1333333  -0.2666667   0.4000000), wk =   0.0106667
        k(  110) = (  -0.1333333  -0.3333333   0.2000000), wk =   0.0106667
        k(  111) = (  -0.1333333  -0.3333333   0.4000000), wk =   0.0106667
        k(  112) = (  -0.1333333  -0.4000000   0.2000000), wk =   0.0106667
        k(  113) = (  -0.1333333  -0.4000000   0.4000000), wk =   0.0106667
        k(  114) = (  -0.2000000  -0.2666667   0.2000000), wk =   0.0106667
        k(  115) = (  -0.2000000  -0.2666667   0.4000000), wk =   0.0106667
        k(  116) = (  -0.2000000  -0.3333333   0.2000000), wk =   0.0106667
        k(  117) = (  -0.2000000  -0.3333333   0.4000000), wk =   0.0106667
        k(  118) = (  -0.2666667  -0.3333333   0.2000000), wk =   0.0106667
        k(  119) = (  -0.2666667  -0.3333333   0.4000000), wk =   0.0106667

     Dense  grid:   596901 G-vectors     FFT dimensions: (  60,  60, 375)

     Estimated max dynamical RAM per process >     703.29MB

     Estimated total allocated dynamical RAM >   33757.74MB

     Initial potential from superposition of free atoms

     starting charge  113.97591, renormalised to  114.00000
     Starting wfc are  156 randomized atomic wfcs

     total cpu time spent up to now is      100.4 secs

     Self-consistent Calculation

     iteration #  1     ecut=   150.00 Ry     beta=0.70
     Davidson diagonalization with overlap
     ethr =  1.00E-02,  avg # of iterations =  1.9

     Threshold (ethr) on eigenvalues was too large:
     Diagonalizing with lowered threshold

     Davidson diagonalization with overlap
     ethr =  3.67E-04,  avg # of iterations =  2.6

     total cpu time spent up to now is      547.6 secs

     total energy              =    -739.57124902 Ry
     Harris-Foulkes estimate   =    -739.80992889 Ry
     estimated scf accuracy    <       0.35818736 Ry

     iteration #  2     ecut=   150.00 Ry     beta=0.70
     Davidson diagonalization with overlap
     ethr =  3.14E-04,  avg # of iterations =  3.4

     total cpu time spent up to now is      846.6 secs

     total energy              =    -739.50002034 Ry
     Harris-Foulkes estimate   =    -739.88349105 Ry
     estimated scf accuracy    <       0.95709420 Ry

     iteration #  3     ecut=   150.00 Ry     beta=0.70
     Davidson diagonalization with overlap
     ethr =  3.14E-04,  avg # of iterations =  3.0

     total cpu time spent up to now is     1119.7 secs

     total energy              =    -739.69553604 Ry
     Harris-Foulkes estimate   =    -739.73829017 Ry
     estimated scf accuracy    <       0.11823682 Ry

     iteration #  4     ecut=   150.00 Ry     beta=0.70
     Davidson diagonalization with overlap
     ethr =  1.04E-04,  avg # of iterations =  2.0

     total cpu time spent up to now is     1364.7 secs

     total energy              =    -739.71506250 Ry
     Harris-Foulkes estimate   =    -739.71569514 Ry
     estimated scf accuracy    <       0.00202439 Ry

     iteration #  5     ecut=   150.00 Ry     beta=0.70
     Davidson diagonalization with overlap
     ethr =  1.78E-06,  avg # of iterations =  3.6

     total cpu time spent up to now is     1700.1 secs

     total energy              =    -739.71562428 Ry
     Harris-Foulkes estimate   =    -739.71582441 Ry
     estimated scf accuracy    <       0.00037386 Ry

     iteration #  6     ecut=   150.00 Ry     beta=0.70
     Davidson diagonalization with overlap
     ethr =  3.28E-07,  avg # of iterations =  4.9

     total cpu time spent up to now is     2005.6 secs

     total energy              =    -739.71549997 Ry
     Harris-Foulkes estimate   =    -739.71608009 Ry
     estimated scf accuracy    <       0.00317256 Ry

     iteration #  7     ecut=   150.00 Ry     beta=0.70
     Davidson diagonalization with overlap
     ethr =  3.28E-07,  avg # of iterations =  4.4

     total cpu time spent up to now is     2278.8 secs

     total energy              =    -739.71577876 Ry
     Harris-Foulkes estimate   =    -739.71578056 Ry
     estimated scf accuracy    <       0.00000667 Ry

     iteration #  8     ecut=   150.00 Ry     beta=0.70
     Davidson diagonalization with overlap
     ethr =  5.85E-09,  avg # of iterations =  3.9

     total cpu time spent up to now is     2567.1 secs

     total energy              =    -739.71578029 Ry
     Harris-Foulkes estimate   =    -739.71578085 Ry
     estimated scf accuracy    <       0.00000130 Ry

     iteration #  9     ecut=   150.00 Ry     beta=0.70
     Davidson diagonalization with overlap
     ethr =  1.14E-09,  avg # of iterations =  4.1

     total cpu time spent up to now is     2858.1 secs

     total energy              =    -739.71578041 Ry
     Harris-Foulkes estimate   =    -739.71578091 Ry
     estimated scf accuracy    <       0.00000187 Ry

     iteration # 10     ecut=   150.00 Ry     beta=0.70
     Davidson diagonalization with overlap
     ethr =  1.14E-09,  avg # of iterations =  4.3

     total cpu time spent up to now is     3118.0 secs

     total energy              =    -739.71578059 Ry
     Harris-Foulkes estimate   =    -739.71578079 Ry
     estimated scf accuracy    <       0.00000082 Ry

     iteration # 11     ecut=   150.00 Ry     beta=0.70
     Davidson diagonalization with overlap
     ethr =  7.24E-10,  avg # of iterations =  3.5

     total cpu time spent up to now is     3366.3 secs

     total energy              =    -739.71578069 Ry
     Harris-Foulkes estimate   =    -739.71578072 Ry
     estimated scf accuracy    <       0.00000011 Ry

     iteration # 12     ecut=   150.00 Ry     beta=0.70
     Davidson diagonalization with overlap
     ethr =  9.80E-11,  avg # of iterations =  3.4

     total cpu time spent up to now is     3613.9 secs

     total energy              =    -739.71578071 Ry
     Harris-Foulkes estimate   =    -739.71578071 Ry
     estimated scf accuracy    <          8.3E-09 Ry

     iteration # 13     ecut=   150.00 Ry     beta=0.70
     Davidson diagonalization with overlap
     ethr =  7.26E-12,  avg # of iterations =  4.2

     total cpu time spent up to now is     3896.4 secs

     total energy              =    -739.71578071 Ry
     Harris-Foulkes estimate   =    -739.71578071 Ry
     estimated scf accuracy    <          3.0E-09 Ry

     iteration # 14     ecut=   150.00 Ry     beta=0.70
     Davidson diagonalization with overlap
     ethr =  2.59E-12,  avg # of iterations =  3.2

     total cpu time spent up to now is     4143.9 secs

     End of self-consistent calculation

          k = 0.0000 0.0000 0.0000 ( 74593 PWs)   bands (ev):

    -8.3319  -8.3319  -8.3319  -8.3319  -8.3318  -8.3318  -8.2590  -8.2590
    -8.2590  -8.2590  -8.2590  -8.2590  -8.2426  -8.2426  -8.2426  -8.2426
    -8.2425  -8.2425  -8.2310  -8.2310  -8.2310  -8.2310  -8.2308  -8.2308
    -7.4907  -7.4907  -7.4897  -7.4897  -7.4897  -7.4897  -7.4578  -7.4578
    -7.4578  -7.4578  -7.4577  -7.4577  -7.4347  -7.4347  -7.4347  -7.4347
    -7.4340  -7.4340  -7.3762  -7.3762  -7.3760  -7.3760  -7.3759  -7.3759
    -7.3378  -7.3378  -7.3377  -7.3377  -7.3261  -7.3261  -7.2734  -7.2734
    -7.2733  -7.2733  -7.2733  -7.2733  -6.8454  -6.8454  -6.7506  -6.7506
    -6.7506  -6.7506  -6.5322  -6.5322  -6.5321  -6.5321  -6.4367  -6.4367
     0.2589   0.2589   0.4915   0.4915   0.4916   0.4916   2.4703   2.4703
     2.4704   2.4704   3.1388   3.1388   4.9338   4.9338   5.1362   5.1362
     5.1362   5.1362   5.2868   5.2868   5.3057   5.3057   5.3130   5.3130
     5.3130   5.3130   5.4278   5.4278   5.4294   5.4294   5.4864   5.4864
     5.5825   5.5825   5.6447   5.6447   5.6465   5.6465   6.0353   6.0353
     6.0353   6.0353

     occupation numbers 
     1.0000   1.0000   1.0000   1.0000   1.0000   1.0000   1.0000   1.0000
     1.0000   1.0000   1.0000   1.0000   1.0000   1.0000   1.0000   1.0000
     1.0000   1.0000   1.0000   1.0000   1.0000   1.0000   1.0000   1.0000
     1.0000   1.0000   1.0000   1.0000   1.0000   1.0000   1.0000   1.0000
     1.0000   1.0000   1.0000   1.0000   1.0000   1.0000   1.0000   1.0000
     1.0000   1.0000   1.0000   1.0000   1.0000   1.0000   1.0000   1.0000
     1.0000   1.0000   1.0000   1.0000   1.0000   1.0000   1.0000   1.0000
     1.0000   1.0000   1.0000   1.0000   1.0000   1.0000   1.0000   1.0000
     1.0000   1.0000   1.0000   1.0000   1.0000   1.0000   1.0000   1.0000
     1.0000   1.0000   1.0000   1.0000   1.0000   1.0000   1.0000   1.0000
     1.0000   1.0000   1.0000   1.0000   1.0000   1.0000   1.0000   1.0000
     1.0000   1.0000   1.0000   1.0000   1.0000   1.0000   1.0000   1.0000
     1.0000   1.0000   1.0000   1.0000   1.0000   1.0000   1.0000   1.0000
     1.0000   1.0000   1.0000   1.0000   1.0000   1.0000   1.0000   1.0000
     1.0000   1.0000

          k = 0.0000 0.0000 0.0317 ( 74569 PWs)   bands (ev):

    -8.3319  -8.3319  -8.3319  -8.3319  -8.3319  -8.3319  -8.2590  -8.2590
    -8.2590  -8.2590  -8.2590  -8.2590  -8.2426  -8.2426  -8.2426  -8.2426
    -8.2426  -8.2425  -8.2311  -8.2311  -8.2310  -8.2310  -8.2308  -8.2308
    -7.4907  -7.4907  -7.4900  -7.4900  -7.4895  -7.4895  -7.4578  -7.4578
    -7.4578  -7.4577  -7.4577  -7.4577  -7.4349  -7.4349  -7.4345  -7.4345
    -7.4340  -7.4340  -7.3762  -7.3762  -7.3760  -7.3760  -7.3759  -7.3759
    -7.3400  -7.3400  -7.3348  -7.3348  -7.3268  -7.3268  -7.2734  -7.2734
    -7.2733  -7.2733  -7.2733  -7.2732  -6.8410  -6.8410  -6.7815  -6.7815
    -6.7186  -6.7186  -6.5645  -6.5645  -6.5010  -6.5010  -6.4410  -6.4410
     0.2705   0.2705   0.4224   0.4224   0.5514   0.5514   2.3457   2.3457
     2.6311   2.6311   3.0926   3.0926   4.9742   4.9742   5.1314   5.1314
     5.1388   5.1388   5.2681   5.2681   5.2922   5.2922   5.3268   5.3268
     5.3404   5.3404   5.4200   5.4210   5.4390   5.4412   5.4804   5.4820
     5.5872   5.5889   5.6315   5.6339   5.6542   5.6554   5.7794   5.7794
     6.3031   6.3031

     occupation numbers 
     1.0000   1.0000   1.0000   1.0000   1.0000   1.0000   1.0000   1.0000
     1.0000   1.0000   1.0000   1.0000   1.0000   1.0000   1.0000   1.0000
     1.0000   1.0000   1.0000   1.0000   1.0000   1.0000   1.0000   1.0000
     1.0000   1.0000   1.0000   1.0000   1.0000   1.0000   1.0000   1.0000
     1.0000   1.0000   1.0000   1.0000   1.0000   1.0000   1.0000   1.0000
     1.0000   1.0000   1.0000   1.0000   1.0000   1.0000   1.0000   1.0000
     1.0000   1.0000   1.0000   1.0000   1.0000   1.0000   1.0000   1.0000
     1.0000   1.0000   1.0000   1.0000   1.0000   1.0000   1.0000   1.0000
     1.0000   1.0000   1.0000   1.0000   1.0000   1.0000   1.0000   1.0000
     1.0000   1.0000   1.0000   1.0000   1.0000   1.0000   1.0000   1.0000
     1.0000   1.0000   1.0000   1.0000   1.0000   1.0000   1.0000   1.0000
     1.0000   1.0000   1.0000   1.0000   1.0000   1.0000   1.0000   1.0000
     1.0000   1.0000   1.0000   1.0000   1.0000   1.0000   1.0000   1.0000
     1.0000   1.0000   1.0000   1.0000   1.0000   1.0000   1.0000   1.0000
     1.0000   1.0000

          k = 0.0000 0.0000 0.0633 ( 74617 PWs)   bands (ev):

    -8.3320  -8.3320  -8.3319  -8.3319  -8.3319  -8.3319  -8.2590  -8.2590
    -8.2590  -8.2590  -8.2590  -8.2590  -8.2426  -8.2426  -8.2426  -8.2426
    -8.2425  -8.2425  -8.2311  -8.2311  -8.2309  -8.2309  -8.2308  -8.2308
    -7.4905  -7.4905  -7.4903  -7.4903  -7.4894  -7.4894  -7.4578  -7.4578
    -7.4578  -7.4578  -7.4577  -7.4577  -7.4350  -7.4350  -7.4343  -7.4343
    -7.4341  -7.4341  -7.3761  -7.3761  -7.3761  -7.3761  -7.3758  -7.3758
    -7.3412  -7.3412  -7.3317  -7.3317  -7.3288  -7.3288  -7.2734  -7.2734
    -7.2733  -7.2733  -7.2733  -7.2732  -6.8283  -6.8283  -6.8080  -6.8080
    -6.6933  -6.6933  -6.5899  -6.5899  -6.4742  -6.4742  -6.4538  -6.4538
     0.3042   0.3042   0.3568   0.3568   0.5868   0.5868   2.2769   2.2769
     2.8061   2.8061   2.9703   2.9703   5.0626   5.0626   5.1244   5.1244
     5.1283   5.1283   5.2571   5.2571   5.2680   5.2680   5.3336   5.3336
     5.4161   5.4165   5.4165   5.4165   5.4528   5.4553   5.4676   5.4700
     5.5622   5.5622   5.6001   5.6025   5.6160   5.6186   5.6594   5.6598
     6.5458   6.5458

     occupation numbers 
     1.0000   1.0000   1.0000   1.0000   1.0000   1.0000   1.0000   1.0000
     1.0000   1.0000   1.0000   1.0000   1.0000   1.0000   1.0000   1.0000
     1.0000   1.0000   1.0000   1.0000   1.0000   1.0000   1.0000   1.0000
     1.0000   1.0000   1.0000   1.0000   1.0000   1.0000   1.0000   1.0000
     1.0000   1.0000   1.0000   1.0000   1.0000   1.0000   1.0000   1.0000
     1.0000   1.0000   1.0000   1.0000   1.0000   1.0000   1.0000   1.0000
     1.0000   1.0000   1.0000   1.0000   1.0000   1.0000   1.0000   1.0000
     1.0000   1.0000   1.0000   1.0000   1.0000   1.0000   1.0000   1.0000
     1.0000   1.0000   1.0000   1.0000   1.0000   1.0000   1.0000   1.0000
     1.0000   1.0000   1.0000   1.0000   1.0000   1.0000   1.0000   1.0000
     1.0000   1.0000   1.0000   1.0000   1.0000   1.0000   1.0000   1.0000
     1.0000   1.0000   1.0000   1.0000   1.0000   1.0000   1.0000   1.0000
     1.0000   1.0000   1.0000   1.0000   1.0000   1.0000   1.0000   1.0000
     1.0000   1.0000   1.0000   1.0000   1.0000   1.0000   1.0000   1.0000
     1.0000   1.0000

          k = 0.0000 0.0770-0.0000 ( 74563 PWs)   bands (ev):

    -8.3348  -8.3348  -8.3346  -8.3346  -8.3345  -8.3344  -8.2622  -8.2622
    -8.2620  -8.2620  -8.2618  -8.2618  -8.2478  -8.2478  -8.2476  -8.2476
    -8.2474  -8.2473  -8.2295  -8.2295  -8.2294  -8.2293  -8.2293  -8.2293
    -7.5156  -7.5150  -7.5145  -7.5140  -7.5129  -7.5129  -7.4641  -7.4640
    -7.4639  -7.4638  -7.4633  -7.4633  -7.4352  -7.4351  -7.4347  -7.4347
    -7.4342  -7.4342  -7.3788  -7.3786  -7.3785  -7.3783  -7.3776  -7.3776
    -7.3318  -7.3317  -7.3299  -7.3298  -7.3233  -7.3232  -7.2696  -7.2696
    -7.2693  -7.2693  -7.2691  -7.2691  -6.7900  -6.7895  -6.7014  -6.7009
    -6.6990  -6.6986  -6.4858  -6.4856  -6.4843  -6.4840  -6.3922  -6.3920
     0.2911   0.2911   0.5130   0.5130   0.5136   0.5137   2.4744   2.4746
     2.4766   2.4770   3.0691   3.0692   4.7550   4.7574   4.9451   4.9463
     4.9532   4.9547   5.0184   5.0230   5.0270   5.0302   5.1222   5.1223
     5.2907   5.2928   5.2953   5.2961   5.3039   5.3063   5.4085   5.4094
     5.4625   5.4666   5.4813   5.4817   5.5232   5.5237   6.1857   6.1871
     6.1882   6.1936

     occupation numbers 
     1.0000   1.0000   1.0000   1.0000   1.0000   1.0000   1.0000   1.0000
     1.0000   1.0000   1.0000   1.0000   1.0000   1.0000   1.0000   1.0000
     1.0000   1.0000   1.0000   1.0000   1.0000   1.0000   1.0000   1.0000
     1.0000   1.0000   1.0000   1.0000   1.0000   1.0000   1.0000   1.0000
     1.0000   1.0000   1.0000   1.0000   1.0000   1.0000   1.0000   1.0000
     1.0000   1.0000   1.0000   1.0000   1.0000   1.0000   1.0000   1.0000
     1.0000   1.0000   1.0000   1.0000   1.0000   1.0000   1.0000   1.0000
     1.0000   1.0000   1.0000   1.0000   1.0000   1.0000   1.0000   1.0000
     1.0000   1.0000   1.0000   1.0000   1.0000   1.0000   1.0000   1.0000
     1.0000   1.0000   1.0000   1.0000   1.0000   1.0000   1.0000   1.0000
     1.0000   1.0000   1.0000   1.0000   1.0000   1.0000   1.0000   1.0000
     1.0000   1.0000   1.0000   1.0000   1.0000   1.0000   1.0000   1.0000
     1.0000   1.0000   1.0000   1.0000   1.0000   1.0000   1.0000   1.0000
     1.0000   1.0000   1.0000   1.0000   1.0000   1.0000   1.0000   1.0000
     1.0000   1.0000

          k = 0.0000 0.0770 0.0317 ( 74557 PWs)   bands (ev):

    -8.3348  -8.3347  -8.3346  -8.3345  -8.3345  -8.3344  -8.2622  -8.2621
    -8.2621  -8.2619  -8.2619  -8.2618  -8.2478  -8.2477  -8.2477  -8.2475
    -8.2474  -8.2473  -8.2295  -8.2294  -8.2294  -8.2293  -8.2293  -8.2293
    -7.5159  -7.5147  -7.5145  -7.5139  -7.5133  -7.5127  -7.4641  -7.4641
    -7.4639  -7.4637  -7.4634  -7.4633  -7.4352  -7.4350  -7.4349  -7.4345
    -7.4343  -7.4341  -7.3790  -7.3785  -7.3784  -7.3781  -7.3777  -7.3776
    -7.3329  -7.3315  -7.3300  -7.3278  -7.3242  -7.3233  -7.2697  -7.2695
    -7.2694  -7.2692  -7.2692  -7.2691  -6.7858  -6.7855  -6.7307  -6.7280
    -6.6704  -6.6689  -6.5165  -6.5154  -6.4555  -6.4539  -6.3965  -6.3963
     0.3023   0.3023   0.4472   0.4473   0.5700   0.5701   2.3605   2.3606
     2.6234   2.6239   3.0293   3.0295   4.7726   4.7741   4.9360   4.9384
     4.9517   4.9530   5.0160   5.0206   5.0319   5.0349   5.1125   5.1138
     5.2876   5.2879   5.3176   5.3201   5.3204   5.3208   5.3894   5.3903
     5.4401   5.4440   5.4919   5.4931   5.5544   5.5560   5.9787   5.9790
     6.3925   6.4017

     occupation numbers 
     1.0000   1.0000   1.0000   1.0000   1.0000   1.0000   1.0000   1.0000
     1.0000   1.0000   1.0000   1.0000   1.0000   1.0000   1.0000   1.0000
     1.0000   1.0000   1.0000   1.0000   1.0000   1.0000   1.0000   1.0000
     1.0000   1.0000   1.0000   1.0000   1.0000   1.0000   1.0000   1.0000
     1.0000   1.0000   1.0000   1.0000   1.0000   1.0000   1.0000   1.0000
     1.0000   1.0000   1.0000   1.0000   1.0000   1.0000   1.0000   1.0000
     1.0000   1.0000   1.0000   1.0000   1.0000   1.0000   1.0000   1.0000
     1.0000   1.0000   1.0000   1.0000   1.0000   1.0000   1.0000   1.0000
     1.0000   1.0000   1.0000   1.0000   1.0000   1.0000   1.0000   1.0000
     1.0000   1.0000   1.0000   1.0000   1.0000   1.0000   1.0000   1.0000
     1.0000   1.0000   1.0000   1.0000   1.0000   1.0000   1.0000   1.0000
     1.0000   1.0000   1.0000   1.0000   1.0000   1.0000   1.0000   1.0000
     1.0000   1.0000   1.0000   1.0000   1.0000   1.0000   1.0000   1.0000
     1.0000   1.0000   1.0000   1.0000   1.0000   1.0000   1.0000   1.0000
     1.0000   1.0000

          k = 0.0000 0.0770 0.0633 ( 74553 PWs)   bands (ev):

    -8.3349  -8.3346  -8.3346  -8.3345  -8.3345  -8.3345  -8.2622  -8.2622
    -8.2620  -8.2620  -8.2618  -8.2618  -8.2478  -8.2478  -8.2476  -8.2475
    -8.2474  -8.2473  -8.2295  -8.2294  -8.2294  -8.2294  -8.2293  -8.2292
    -7.5159  -7.5149  -7.5142  -7.5139  -7.5133  -7.5128  -7.4642  -7.4641
    -7.4637  -7.4635  -7.4635  -7.4634  -7.4352  -7.4351  -7.4348  -7.4345
    -7.4343  -7.4341  -7.3790  -7.3787  -7.3781  -7.3779  -7.3779  -7.3777
    -7.3333  -7.3327  -7.3280  -7.3259  -7.3258  -7.3242  -7.2696  -7.2695
    -7.2694  -7.2693  -7.2691  -7.2691  -6.7742  -6.7731  -6.7557  -6.7533
    -6.6464  -6.6460  -6.5399  -6.5396  -6.4293  -6.4281  -6.4091  -6.4086
     0.3348   0.3348   0.3847   0.3848   0.6031   0.6032   2.2977   2.2978
     2.7811   2.7815   2.9236   2.9238   4.8200   4.8204   4.8918   4.8942
     4.9504   4.9516   5.0344   5.0376   5.0389   5.0419   5.0849   5.0873
     5.2844   5.2855   5.3303   5.3320   5.3419   5.3447   5.3937   5.3945
     5.4161   5.4183   5.4949   5.4970   5.6422   5.6426   5.7929   5.7938
     6.5384   6.5504

     occupation numbers 
     1.0000   1.0000   1.0000   1.0000   1.0000   1.0000   1.0000   1.0000
     1.0000   1.0000   1.0000   1.0000   1.0000   1.0000   1.0000   1.0000
     1.0000   1.0000   1.0000   1.0000   1.0000   1.0000   1.0000   1.0000
     1.0000   1.0000   1.0000   1.0000   1.0000   1.0000   1.0000   1.0000
     1.0000   1.0000   1.0000   1.0000   1.0000   1.0000   1.0000   1.0000
     1.0000   1.0000   1.0000   1.0000   1.0000   1.0000   1.0000   1.0000
     1.0000   1.0000   1.0000   1.0000   1.0000   1.0000   1.0000   1.0000
     1.0000   1.0000   1.0000   1.0000   1.0000   1.0000   1.0000   1.0000
     1.0000   1.0000   1.0000   1.0000   1.0000   1.0000   1.0000   1.0000
     1.0000   1.0000   1.0000   1.0000   1.0000   1.0000   1.0000   1.0000
     1.0000   1.0000   1.0000   1.0000   1.0000   1.0000   1.0000   1.0000
     1.0000   1.0000   1.0000   1.0000   1.0000   1.0000   1.0000   1.0000
     1.0000   1.0000   1.0000   1.0000   1.0000   1.0000   1.0000   1.0000
     1.0000   1.0000   1.0000   1.0000   1.0000   1.0000   1.0000   1.0000
     1.0000   1.0000

          k = 0.0000 0.1540-0.0000 ( 74511 PWs)   bands (ev):

    -8.3435  -8.3433  -8.3431  -8.3429  -8.3426  -8.3426  -8.2695  -8.2694
    -8.2693  -8.2692  -8.2683  -8.2683  -8.2602  -8.2601  -8.2600  -8.2599
    -8.2587  -8.2586  -8.2285  -8.2284  -8.2283  -8.2282  -8.2282  -8.2280
    -7.5636  -7.5627  -7.5603  -7.5598  -7.5565  -7.5563  -7.4810  -7.4808
    -7.4791  -7.4789  -7.4782  -7.4780  -7.4399  -7.4399  -7.4395  -7.4394
    -7.4385  -7.4384  -7.3788  -7.3786  -7.3783  -7.3782  -7.3775  -7.3774
    -7.3264  -7.3263  -7.3238  -7.3238  -7.3216  -7.3216  -7.2590  -7.2587
    -7.2582  -7.2581  -7.2581  -7.2580  -6.6413  -6.6407  -6.5639  -6.5628
    -6.5573  -6.5571  -6.3572  -6.3572  -6.3532  -6.3523  -6.2685  -6.2681
     0.3804   0.3805   0.5655   0.5659   0.5707   0.5713   2.4593   2.4604
     2.4797   2.4813   2.8410   2.8412   4.2150   4.2153   4.3002   4.3023
     4.3048   4.3055   4.5468   4.5491   4.5732   4.5764   4.8952   4.8986
     5.0664   5.0683   5.1016   5.1045   5.1248   5.1312   5.2668   5.2765
     5.2925   5.2969   5.3359   5.3362   5.4910   5.4923   6.2130   6.2136
     6.2402   6.2495

     occupation numbers 
     1.0000   1.0000   1.0000   1.0000   1.0000   1.0000   1.0000   1.0000
     1.0000   1.0000   1.0000   1.0000   1.0000   1.0000   1.0000   1.0000
     1.0000   1.0000   1.0000   1.0000   1.0000   1.0000   1.0000   1.0000
     1.0000   1.0000   1.0000   1.0000   1.0000   1.0000   1.0000   1.0000
     1.0000   1.0000   1.0000   1.0000   1.0000   1.0000   1.0000   1.0000
     1.0000   1.0000   1.0000   1.0000   1.0000   1.0000   1.0000   1.0000
     1.0000   1.0000   1.0000   1.0000   1.0000   1.0000   1.0000   1.0000
     1.0000   1.0000   1.0000   1.0000   1.0000   1.0000   1.0000   1.0000
     1.0000   1.0000   1.0000   1.0000   1.0000   1.0000   1.0000   1.0000
     1.0000   1.0000   1.0000   1.0000   1.0000   1.0000   1.0000   1.0000
     1.0000   1.0000   1.0000   1.0000   1.0000   1.0000   1.0000   1.0000
     1.0000   1.0000   1.0000   1.0000   1.0000   1.0000   1.0000   1.0000
     1.0000   1.0000   1.0000   1.0000   1.0000   1.0000   1.0000   1.0000
     1.0000   1.0000   1.0000   1.0000   1.0000   1.0000   1.0000   1.0000
     1.0000   1.0000

          k = 0.0000 0.1540 0.0317 ( 74525 PWs)   bands (ev):

    -8.3436  -8.3431  -8.3431  -8.3430  -8.3427  -8.3426  -8.2697  -8.2695
    -8.2692  -8.2689  -8.2685  -8.2683  -8.2605  -8.2603  -8.2598  -8.2596
    -8.2588  -8.2587  -8.2285  -8.2284  -8.2283  -8.2281  -8.2281  -8.2281
    -7.5642  -7.5617  -7.5612  -7.5586  -7.5577  -7.5559  -7.4811  -7.4803
    -7.4798  -7.4787  -7.4783  -7.4778  -7.4401  -7.4398  -7.4396  -7.4391
    -7.4386  -7.4384  -7.3790  -7.3784  -7.3784  -7.3780  -7.3776  -7.3775
    -7.3266  -7.3256  -7.3249  -7.3227  -7.3224  -7.3212  -7.2589  -7.2586
    -7.2584  -7.2582  -7.2580  -7.2579  -6.6380  -6.6367  -6.5902  -6.5837
    -6.5353  -6.5306  -6.3854  -6.3816  -6.3289  -6.3246  -6.2727  -6.2720
     0.3909   0.3910   0.5109   0.5114   0.6159   0.6164   2.3833   2.3841
     2.5807   2.5825   2.8143   2.8147   4.2177   4.2185   4.2867   4.2871
     4.3172   4.3191   4.5307   4.5340   4.5960   4.5974   4.8709   4.8710
     5.0630   5.0634   5.1200   5.1230   5.1284   5.1391   5.2602   5.2703
     5.2721   5.2760   5.3398   5.3413   5.5526   5.5527   6.0445   6.0464
     6.3750   6.3855

     occupation numbers 
     1.0000   1.0000   1.0000   1.0000   1.0000   1.0000   1.0000   1.0000
     1.0000   1.0000   1.0000   1.0000   1.0000   1.0000   1.0000   1.0000
     1.0000   1.0000   1.0000   1.0000   1.0000   1.0000   1.0000   1.0000
     1.0000   1.0000   1.0000   1.0000   1.0000   1.0000   1.0000   1.0000
     1.0000   1.0000   1.0000   1.0000   1.0000   1.0000   1.0000   1.0000
     1.0000   1.0000   1.0000   1.0000   1.0000   1.0000   1.0000   1.0000
     1.0000   1.0000   1.0000   1.0000   1.0000   1.0000   1.0000   1.0000
     1.0000   1.0000   1.0000   1.0000   1.0000   1.0000   1.0000   1.0000
     1.0000   1.0000   1.0000   1.0000   1.0000   1.0000   1.0000   1.0000
     1.0000   1.0000   1.0000   1.0000   1.0000   1.0000   1.0000   1.0000
     1.0000   1.0000   1.0000   1.0000   1.0000   1.0000   1.0000   1.0000
     1.0000   1.0000   1.0000   1.0000   1.0000   1.0000   1.0000   1.0000
     1.0000   1.0000   1.0000   1.0000   1.0000   1.0000   1.0000   1.0000
     1.0000   1.0000   1.0000   1.0000   1.0000   1.0000   1.0000   1.0000
     1.0000   1.0000

          k = 0.0000 0.1540 0.0633 ( 74505 PWs)   bands (ev):

    -8.3437  -8.3431  -8.3429  -8.3429  -8.3428  -8.3427  -8.2697  -8.2696
    -8.2689  -8.2687  -8.2686  -8.2684  -8.2606  -8.2605  -8.2594  -8.2592
    -8.2589  -8.2589  -8.2285  -8.2284  -8.2283  -8.2282  -8.2281  -8.2280
    -7.5640  -7.5624  -7.5603  -7.5592  -7.5572  -7.5561  -7.4808  -7.4804
    -7.4797  -7.4794  -7.4779  -7.4778  -7.4402  -7.4400  -7.4393  -7.4389
    -7.4388  -7.4385  -7.3790  -7.3786  -7.3781  -7.3779  -7.3777  -7.3775
    -7.3265  -7.3258  -7.3247  -7.3235  -7.3218  -7.3213  -7.2588  -7.2585
    -7.2585  -7.2584  -7.2580  -7.2578  -6.6280  -6.6250  -6.6124  -6.6068
    -6.5134  -6.5118  -6.4053  -6.4039  -6.3042  -6.3007  -6.2850  -6.2832
     0.4196   0.4199   0.4585   0.4590   0.6414   0.6417   2.3435   2.3438
     2.6826   2.6843   2.7499   2.7508   4.2314   4.2328   4.2647   4.2648
     4.3254   4.3270   4.5081   4.5114   4.6661   4.6661   4.7954   4.7975
     5.0649   5.0657   5.1130   5.1212   5.1356   5.1378   5.2563   5.2585
     5.2796   5.2854   5.3367   5.3393   5.6965   5.6987   5.8655   5.8690
     6.4453   6.4553

     occupation numbers 
     1.0000   1.0000   1.0000   1.0000   1.0000   1.0000   1.0000   1.0000
     1.0000   1.0000   1.0000   1.0000   1.0000   1.0000   1.0000   1.0000
     1.0000   1.0000   1.0000   1.0000   1.0000   1.0000   1.0000   1.0000
     1.0000   1.0000   1.0000   1.0000   1.0000   1.0000   1.0000   1.0000
     1.0000   1.0000   1.0000   1.0000   1.0000   1.0000   1.0000   1.0000
     1.0000   1.0000   1.0000   1.0000   1.0000   1.0000   1.0000   1.0000
     1.0000   1.0000   1.0000   1.0000   1.0000   1.0000   1.0000   1.0000
     1.0000   1.0000   1.0000   1.0000   1.0000   1.0000   1.0000   1.0000
     1.0000   1.0000   1.0000   1.0000   1.0000   1.0000   1.0000   1.0000
     1.0000   1.0000   1.0000   1.0000   1.0000   1.0000   1.0000   1.0000
     1.0000   1.0000   1.0000   1.0000   1.0000   1.0000   1.0000   1.0000
     1.0000   1.0000   1.0000   1.0000   1.0000   1.0000   1.0000   1.0000
     1.0000   1.0000   1.0000   1.0000   1.0000   1.0000   1.0000   1.0000
     1.0000   1.0000   1.0000   1.0000   1.0000   1.0000   1.0000   1.0000
     1.0000   1.0000

          k = 0.0000 0.2309-0.0000 ( 74504 PWs)   bands (ev):

    -8.3577  -8.3571  -8.3570  -8.3566  -8.3562  -8.3562  -8.2842  -8.2840
    -8.2823  -8.2821  -8.2817  -8.2814  -8.2727  -8.2725  -8.2725  -8.2724
    -8.2722  -8.2721  -8.2278  -8.2277  -8.2277  -8.2277  -8.2276  -8.2275
    -7.6045  -7.6033  -7.6000  -7.5997  -7.5950  -7.5949  -7.5051  -7.5047
    -7.5028  -7.5023  -7.4995  -7.4991  -7.4435  -7.4435  -7.4433  -7.4432
    -7.4425  -7.4424  -7.3752  -7.3750  -7.3749  -7.3748  -7.3745  -7.3743
    -7.3239  -7.3238  -7.3223  -7.3222  -7.3212  -7.3212  -7.2458  -7.2454
    -7.2450  -7.2449  -7.2448  -7.2447  -6.4314  -6.4308  -6.3636  -6.3613
    -6.3543  -6.3534  -6.1714  -6.1702  -6.1650  -6.1628  -6.0881  -6.0877
     0.5006   0.5008   0.6125   0.6134   0.6314   0.6328   2.3358   2.3389
     2.4103   2.4136   2.4483   2.4495   3.5662   3.5684   3.6348   3.6357
     3.6606   3.6617   4.1137   4.1164   4.1511   4.1544   4.7178   4.7196
     4.8270   4.8290   4.8801   4.8845   4.9054   4.9214   5.0819   5.0927
     5.0964   5.0987   5.1589   5.1595   5.5274   5.5310   6.0689   6.0705
     6.1440   6.1553

     occupation numbers 
     1.0000   1.0000   1.0000   1.0000   1.0000   1.0000   1.0000   1.0000
     1.0000   1.0000   1.0000   1.0000   1.0000   1.0000   1.0000   1.0000
     1.0000   1.0000   1.0000   1.0000   1.0000   1.0000   1.0000   1.0000
     1.0000   1.0000   1.0000   1.0000   1.0000   1.0000   1.0000   1.0000
     1.0000   1.0000   1.0000   1.0000   1.0000   1.0000   1.0000   1.0000
     1.0000   1.0000   1.0000   1.0000   1.0000   1.0000   1.0000   1.0000
     1.0000   1.0000   1.0000   1.0000   1.0000   1.0000   1.0000   1.0000
     1.0000   1.0000   1.0000   1.0000   1.0000   1.0000   1.0000   1.0000
     1.0000   1.0000   1.0000   1.0000   1.0000   1.0000   1.0000   1.0000
     1.0000   1.0000   1.0000   1.0000   1.0000   1.0000   1.0000   1.0000
     1.0000   1.0000   1.0000   1.0000   1.0000   1.0000   1.0000   1.0000
     1.0000   1.0000   1.0000   1.0000   1.0000   1.0000   1.0000   1.0000
     1.0000   1.0000   1.0000   1.0000   1.0000   1.0000   1.0000   1.0000
     1.0000   1.0000   1.0000   1.0000   1.0000   1.0000   1.0000   1.0000
     1.0000   1.0000

          k = 0.0000 0.2309 0.0317 ( 74506 PWs)   bands (ev):

    -8.3578  -8.3570  -8.3568  -8.3567  -8.3564  -8.3561  -8.2841  -8.2837
    -8.2829  -8.2823  -8.2815  -8.2811  -8.2728  -8.2725  -8.2724  -8.2724
    -8.2722  -8.2722  -8.2278  -8.2277  -8.2277  -8.2276  -8.2276  -8.2275
    -7.6052  -7.6019  -7.6017  -7.5977  -7.5966  -7.5943  -7.5056  -7.5041
    -7.5034  -7.5010  -7.5003  -7.4990  -7.4436  -7.4434  -7.4433  -7.4430
    -7.4425  -7.4425  -7.3753  -7.3749  -7.3749  -7.3747  -7.3744  -7.3744
    -7.3240  -7.3234  -7.3229  -7.3217  -7.3216  -7.3209  -7.2458  -7.2454
    -7.2451  -7.2450  -7.2448  -7.2446  -6.4285  -6.4266  -6.3871  -6.3785
    -6.3364  -6.3296  -6.1968  -6.1909  -6.1443  -6.1377  -6.0925  -6.0911
     0.5109   0.5111   0.5779   0.5790   0.6561   0.6572   2.3294   2.3319
     2.4297   2.4299   2.4352   2.4392   3.5722   3.5745   3.6107   3.6122
     3.6858   3.6859   4.0468   4.0510   4.2323   4.2330   4.6778   4.6799
     4.8261   4.8263   4.8979   4.9027   4.9075   4.9160   5.0688   5.0745
     5.0894   5.1033   5.1592   5.1613   5.5948   5.5952   5.9555   5.9599
     6.2109   6.2219

     occupation numbers 
     1.0000   1.0000   1.0000   1.0000   1.0000   1.0000   1.0000   1.0000
     1.0000   1.0000   1.0000   1.0000   1.0000   1.0000   1.0000   1.0000
     1.0000   1.0000   1.0000   1.0000   1.0000   1.0000   1.0000   1.0000
     1.0000   1.0000   1.0000   1.0000   1.0000   1.0000   1.0000   1.0000
     1.0000   1.0000   1.0000   1.0000   1.0000   1.0000   1.0000   1.0000
     1.0000   1.0000   1.0000   1.0000   1.0000   1.0000   1.0000   1.0000
     1.0000   1.0000   1.0000   1.0000   1.0000   1.0000   1.0000   1.0000
     1.0000   1.0000   1.0000   1.0000   1.0000   1.0000   1.0000   1.0000
     1.0000   1.0000   1.0000   1.0000   1.0000   1.0000   1.0000   1.0000
     1.0000   1.0000   1.0000   1.0000   1.0000   1.0000   1.0000   1.0000
     1.0000   1.0000   1.0000   1.0000   1.0000   1.0000   1.0000   1.0000
     1.0000   1.0000   1.0000   1.0000   1.0000   1.0000   1.0000   1.0000
     1.0000   1.0000   1.0000   1.0000   1.0000   1.0000   1.0000   1.0000
     1.0000   1.0000   1.0000   1.0000   1.0000   1.0000   1.0000   1.0000
     1.0000   1.0000

          k = 0.0000 0.2309 0.0633 ( 74508 PWs)   bands (ev):

    -8.3578  -8.3570  -8.3568  -8.3568  -8.3564  -8.3561  -8.2839  -8.2835
    -8.2831  -8.2829  -8.2811  -8.2810  -8.2729  -8.2725  -8.2724  -8.2723
    -8.2722  -8.2722  -8.2278  -8.2277  -8.2277  -8.2276  -8.2276  -8.2275
    -7.6050  -7.6032  -7.6000  -7.5988  -7.5958  -7.5947  -7.5055  -7.5051
    -7.5020  -7.5015  -7.5000  -7.4994  -7.4437  -7.4435  -7.4430  -7.4428
    -7.4427  -7.4426  -7.3753  -7.3750  -7.3748  -7.3746  -7.3745  -7.3745
    -7.3239  -7.3234  -7.3229  -7.3223  -7.3211  -7.3209  -7.2456  -7.2453
    -7.2453  -7.2452  -7.2448  -7.2445  -6.4198  -6.4156  -6.4068  -6.3995
    -6.3165  -6.3141  -6.2135  -6.2112  -6.1215  -6.1162  -6.1042  -6.1013
     0.5329   0.5336   0.5450   0.5461   0.6672   0.6679   2.3365   2.3377
     2.4048   2.4062   2.4526   2.4566   3.5860   3.5882   3.5912   3.5931
     3.6974   3.6983   3.9851   3.9903   4.3732   4.3750   4.5687   4.5714
     4.8309   4.8321   4.8746   4.8865   4.9210   4.9248   5.0527   5.0565
     5.1099   5.1179   5.1517   5.1552   5.7329   5.7370   5.8247   5.8310
     6.2323   6.2413

     occupation numbers 
     1.0000   1.0000   1.0000   1.0000   1.0000   1.0000   1.0000   1.0000
     1.0000   1.0000   1.0000   1.0000   1.0000   1.0000   1.0000   1.0000
     1.0000   1.0000   1.0000   1.0000   1.0000   1.0000   1.0000   1.0000
     1.0000   1.0000   1.0000   1.0000   1.0000   1.0000   1.0000   1.0000
     1.0000   1.0000   1.0000   1.0000   1.0000   1.0000   1.0000   1.0000
     1.0000   1.0000   1.0000   1.0000   1.0000   1.0000   1.0000   1.0000
     1.0000   1.0000   1.0000   1.0000   1.0000   1.0000   1.0000   1.0000
     1.0000   1.0000   1.0000   1.0000   1.0000   1.0000   1.0000   1.0000
     1.0000   1.0000   1.0000   1.0000   1.0000   1.0000   1.0000   1.0000
     1.0000   1.0000   1.0000   1.0000   1.0000   1.0000   1.0000   1.0000
     1.0000   1.0000   1.0000   1.0000   1.0000   1.0000   1.0000   1.0000
     1.0000   1.0000   1.0000   1.0000   1.0000   1.0000   1.0000   1.0000
     1.0000   1.0000   1.0000   1.0000   1.0000   1.0000   1.0000   1.0000
     1.0000   1.0000   1.0000   1.0000   1.0000   1.0000   1.0000   1.0000
     1.0000   1.0000

          k = 0.0000 0.3079-0.0000 ( 74512 PWs)   bands (ev):

    -8.3743  -8.3737  -8.3730  -8.3728  -8.3726  -8.3726  -8.3110  -8.3105
    -8.3098  -8.3094  -8.3077  -8.3073  -8.2765  -8.2763  -8.2760  -8.2759
    -8.2758  -8.2757  -8.2271  -8.2271  -8.2270  -8.2270  -8.2268  -8.2268
    -7.6317  -7.6302  -7.6271  -7.6268  -7.6218  -7.6215  -7.5272  -7.5265
    -7.5250  -7.5240  -7.5204  -7.5198  -7.4460  -7.4460  -7.4460  -7.4459
    -7.4455  -7.4454  -7.3697  -7.3696  -7.3695  -7.3694  -7.3694  -7.3692
    -7.3217  -7.3215  -7.3210  -7.3208  -7.3201  -7.3200  -7.2330  -7.2325
    -7.2325  -7.2323  -7.2322  -7.2320  -6.1881  -6.1877  -6.1293  -6.1242
    -6.1191  -6.1153  -5.9564  -5.9524  -5.9485  -5.9435  -5.8791  -5.8787
     0.5912   0.5918   0.5937   0.5951   0.6378   0.6402   1.9655   1.9685
     2.0060   2.0106   2.1409   2.1439   3.0269   3.0310   3.1949   3.1968
     3.2205   3.2219   3.8918   3.8960   3.9545   3.9575   4.5912   4.5939
     4.5958   4.5982   4.6589   4.6658   4.7040   4.7370   4.8824   4.8875
     4.8919   4.9078   4.9687   4.9700   5.5425   5.5483   5.7752   5.7793
     5.9139   5.9263

     occupation numbers 
     1.0000   1.0000   1.0000   1.0000   1.0000   1.0000   1.0000   1.0000
     1.0000   1.0000   1.0000   1.0000   1.0000   1.0000   1.0000   1.0000
     1.0000   1.0000   1.0000   1.0000   1.0000   1.0000   1.0000   1.0000
     1.0000   1.0000   1.0000   1.0000   1.0000   1.0000   1.0000   1.0000
     1.0000   1.0000   1.0000   1.0000   1.0000   1.0000   1.0000   1.0000
     1.0000   1.0000   1.0000   1.0000   1.0000   1.0000   1.0000   1.0000
     1.0000   1.0000   1.0000   1.0000   1.0000   1.0000   1.0000   1.0000
     1.0000   1.0000   1.0000   1.0000   1.0000   1.0000   1.0000   1.0000
     1.0000   1.0000   1.0000   1.0000   1.0000   1.0000   1.0000   1.0000
     1.0000   1.0000   1.0000   1.0000   1.0000   1.0000   1.0000   1.0000
     1.0000   1.0000   1.0000   1.0000   1.0000   1.0000   1.0000   1.0000
     1.0000   1.0000   1.0000   1.0000   1.0000   1.0000   1.0000   1.0000
     1.0000   1.0000   1.0000   1.0000   1.0000   1.0000   1.0000   1.0000
     1.0000   1.0000   1.0000   1.0000   1.0000   1.0000   1.0000   1.0000
     1.0000   1.0000

          k = 0.0000 0.3079 0.0317 ( 74524 PWs)   bands (ev):

    -8.3742  -8.3737  -8.3731  -8.3729  -8.3727  -8.3724  -8.3113  -8.3105
    -8.3098  -8.3086  -8.3082  -8.3073  -8.2764  -8.2762  -8.2761  -8.2760
    -8.2757  -8.2757  -8.2271  -8.2270  -8.2270  -8.2270  -8.2268  -8.2268
    -7.6324  -7.6290  -7.6287  -7.6244  -7.6235  -7.6211  -7.5278  -7.5265
    -7.5249  -7.5224  -7.5214  -7.5199  -7.4462  -7.4460  -7.4459  -7.4458
    -7.4455  -7.4454  -7.3698  -7.3695  -7.3695  -7.3695  -7.3694  -7.3692
    -7.3218  -7.3213  -7.3213  -7.3205  -7.3203  -7.3200  -7.2330  -7.2325
    -7.2325  -7.2323  -7.2323  -7.2320  -6.1855  -6.1832  -6.1503  -6.1409
    -6.1018  -6.0941  -5.9789  -5.9719  -5.9291  -5.9212  -5.8837  -5.8819
     0.5841   0.5860   0.6034   0.6036   0.6353   0.6373   1.9444   1.9454
     2.0508   2.0552   2.1169   2.1215   3.0386   3.0427   3.1259   3.1264
     3.2993   3.3006   3.7779   3.7829   4.0753   4.0758   4.5490   4.5574
     4.5935   4.5939   4.6854   4.6934   4.6967   4.7276   4.8549   4.8644
     4.8995   4.9182   4.9660   4.9696   5.6125   5.6126   5.7190   5.7264
     5.9166   5.9275

     occupation numbers 
     1.0000   1.0000   1.0000   1.0000   1.0000   1.0000   1.0000   1.0000
     1.0000   1.0000   1.0000   1.0000   1.0000   1.0000   1.0000   1.0000
     1.0000   1.0000   1.0000   1.0000   1.0000   1.0000   1.0000   1.0000
     1.0000   1.0000   1.0000   1.0000   1.0000   1.0000   1.0000   1.0000
     1.0000   1.0000   1.0000   1.0000   1.0000   1.0000   1.0000   1.0000
     1.0000   1.0000   1.0000   1.0000   1.0000   1.0000   1.0000   1.0000
     1.0000   1.0000   1.0000   1.0000   1.0000   1.0000   1.0000   1.0000
     1.0000   1.0000   1.0000   1.0000   1.0000   1.0000   1.0000   1.0000
     1.0000   1.0000   1.0000   1.0000   1.0000   1.0000   1.0000   1.0000
     1.0000   1.0000   1.0000   1.0000   1.0000   1.0000   1.0000   1.0000
     1.0000   1.0000   1.0000   1.0000   1.0000   1.0000   1.0000   1.0000
     1.0000   1.0000   1.0000   1.0000   1.0000   1.0000   1.0000   1.0000
     1.0000   1.0000   1.0000   1.0000   1.0000   1.0000   1.0000   1.0000
     1.0000   1.0000   1.0000   1.0000   1.0000   1.0000   1.0000   1.0000
     1.0000   1.0000

          k = 0.0000 0.3079 0.0633 ( 74532 PWs)   bands (ev):

    -8.3741  -8.3735  -8.3735  -8.3732  -8.3725  -8.3722  -8.3112  -8.3110
    -8.3090  -8.3089  -8.3080  -8.3076  -8.2763  -8.2763  -8.2762  -8.2760
    -8.2757  -8.2757  -8.2271  -8.2271  -8.2270  -8.2269  -8.2269  -8.2268
    -7.6321  -7.6305  -7.6267  -7.6258  -7.6223  -7.6217  -7.5278  -7.5276
    -7.5231  -7.5227  -7.5211  -7.5205  -7.4462  -7.4460  -7.4458  -7.4456
    -7.4455  -7.4455  -7.3698  -7.3695  -7.3694  -7.3694  -7.3693  -7.3693
    -7.3218  -7.3216  -7.3209  -7.3207  -7.3201  -7.3201  -7.2329  -7.2326
    -7.2325  -7.2324  -7.2323  -7.2319  -6.1774  -6.1726  -6.1677  -6.1598
    -6.0839  -6.0815  -5.9925  -5.9901  -5.9086  -5.9023  -5.8949  -5.8911
     0.5784   0.5805   0.6160   0.6172   0.6282   0.6294   1.9368   1.9379
     2.0802   2.0857   2.0950   2.0983   3.0635   3.0674   3.0761   3.0782
     3.3758   3.3837   3.6310   3.6421   4.2618   4.2651   4.4582   4.4644
     4.5998   4.6020   4.6566   4.6755   4.7063   4.7132   4.8389   4.8456
     4.9220   4.9325   4.9548   4.9603   5.6559   5.6656   5.7138   5.7192
     5.8975   5.9053

     occupation numbers 
     1.0000   1.0000   1.0000   1.0000   1.0000   1.0000   1.0000   1.0000
     1.0000   1.0000   1.0000   1.0000   1.0000   1.0000   1.0000   1.0000
     1.0000   1.0000   1.0000   1.0000   1.0000   1.0000   1.0000   1.0000
     1.0000   1.0000   1.0000   1.0000   1.0000   1.0000   1.0000   1.0000
     1.0000   1.0000   1.0000   1.0000   1.0000   1.0000   1.0000   1.0000
     1.0000   1.0000   1.0000   1.0000   1.0000   1.0000   1.0000   1.0000
     1.0000   1.0000   1.0000   1.0000   1.0000   1.0000   1.0000   1.0000
     1.0000   1.0000   1.0000   1.0000   1.0000   1.0000   1.0000   1.0000
     1.0000   1.0000   1.0000   1.0000   1.0000   1.0000   1.0000   1.0000
     1.0000   1.0000   1.0000   1.0000   1.0000   1.0000   1.0000   1.0000
     1.0000   1.0000   1.0000   1.0000   1.0000   1.0000   1.0000   1.0000
     1.0000   1.0000   1.0000   1.0000   1.0000   1.0000   1.0000   1.0000
     1.0000   1.0000   1.0000   1.0000   1.0000   1.0000   1.0000   1.0000
     1.0000   1.0000   1.0000   1.0000   1.0000   1.0000   1.0000   1.0000
     1.0000   1.0000

          k = 0.0000 0.3849-0.0000 ( 74568 PWs)   bands (ev):

    -8.3893  -8.3890  -8.3883  -8.3877  -8.3875  -8.3872  -8.3392  -8.3388
    -8.3381  -8.3381  -8.3359  -8.3356  -8.2775  -8.2772  -8.2772  -8.2770
    -8.2768  -8.2767  -8.2265  -8.2265  -8.2264  -8.2263  -8.2262  -8.2262
    -7.6475  -7.6456  -7.6438  -7.6425  -7.6387  -7.6383  -7.5427  -7.5416
    -7.5410  -7.5393  -7.5362  -7.5354  -7.4484  -7.4483  -7.4483  -7.4482
    -7.4481  -7.4479  -7.3635  -7.3635  -7.3634  -7.3634  -7.3633  -7.3632
    -7.3194  -7.3192  -7.3192  -7.3190  -7.3183  -7.3183  -7.2218  -7.2216
    -7.2213  -7.2213  -7.2213  -7.2211  -5.9410  -5.9410  -5.8931  -5.8826
    -5.8821  -5.8728  -5.7457  -5.7371  -5.7355  -5.7260  -5.6741  -5.6740
     0.4721   0.4732   0.5416   0.5445   0.5603   0.5619   1.5031   1.5078
     1.5514   1.5557   1.6965   1.6971   2.7582   2.7636   3.0622   3.0650
     3.0781   3.0839   3.8959   3.9016   3.9559   3.9594   4.3974   4.3989
     4.4392   4.4446   4.4666   4.4782   4.5834   4.6227   4.6921   4.7090
     4.7242   4.7508   4.7960   4.7989   5.3785   5.3859   5.4468   5.4541
     5.5885   5.6000

     occupation numbers 
     1.0000   1.0000   1.0000   1.0000   1.0000   1.0000   1.0000   1.0000
     1.0000   1.0000   1.0000   1.0000   1.0000   1.0000   1.0000   1.0000
     1.0000   1.0000   1.0000   1.0000   1.0000   1.0000   1.0000   1.0000
     1.0000   1.0000   1.0000   1.0000   1.0000   1.0000   1.0000   1.0000
     1.0000   1.0000   1.0000   1.0000   1.0000   1.0000   1.0000   1.0000
     1.0000   1.0000   1.0000   1.0000   1.0000   1.0000   1.0000   1.0000
     1.0000   1.0000   1.0000   1.0000   1.0000   1.0000   1.0000   1.0000
     1.0000   1.0000   1.0000   1.0000   1.0000   1.0000   1.0000   1.0000
     1.0000   1.0000   1.0000   1.0000   1.0000   1.0000   1.0000   1.0000
     1.0000   1.0000   1.0000   1.0000   1.0000   1.0000   1.0000   1.0000
     1.0000   1.0000   1.0000   1.0000   1.0000   1.0000   1.0000   1.0000
     1.0000   1.0000   1.0000   1.0000   1.0000   1.0000   1.0000   1.0000
     1.0000   1.0000   1.0000   1.0000   1.0000   1.0000   1.0000   1.0000
     1.0000   1.0000   1.0000   1.0000   1.0000   1.0000   1.0000   1.0000
     1.0000   1.0000

          k = 0.0000 0.3849 0.0317 ( 74534 PWs)   bands (ev):

    -8.3891  -8.3891  -8.3888  -8.3876  -8.3873  -8.3873  -8.3396  -8.3393
    -8.3373  -8.3373  -8.3363  -8.3359  -8.2775  -8.2773  -8.2771  -8.2770
    -8.2768  -8.2767  -8.2265  -8.2265  -8.2264  -8.2263  -8.2262  -8.2262
    -7.6480  -7.6454  -7.6441  -7.6404  -7.6403  -7.6382  -7.5432  -7.5424
    -7.5400  -7.5378  -7.5372  -7.5357  -7.4484  -7.4483  -7.4482  -7.4482
    -7.4480  -7.4480  -7.3636  -7.3634  -7.3634  -7.3634  -7.3633  -7.3632
    -7.3195  -7.3194  -7.3189  -7.3187  -7.3185  -7.3184  -7.2219  -7.2216
    -7.2214  -7.2213  -7.2212  -7.2212  -5.9384  -5.9356  -5.9112  -5.9018
    -5.8620  -5.8542  -5.7652  -5.7577  -5.7152  -5.7069  -5.6795  -5.6772
     0.4788   0.4807   0.5186   0.5211   0.5777   0.5781   1.4745   1.4774
     1.5988   1.6033   1.6770   1.6796   2.7721   2.7780   2.9615   2.9638
     3.1899   3.1911   3.7689   3.7751   4.0903   4.0905   4.3948   4.3964
     4.4028   4.4088   4.4957   4.5102   4.5816   4.6202   4.6631   4.6806
     4.7286   4.7561   4.7902   4.7966   5.3643   5.3751   5.5199   5.5207
     5.5416   5.5509

     occupation numbers 
     1.0000   1.0000   1.0000   1.0000   1.0000   1.0000   1.0000   1.0000
     1.0000   1.0000   1.0000   1.0000   1.0000   1.0000   1.0000   1.0000
     1.0000   1.0000   1.0000   1.0000   1.0000   1.0000   1.0000   1.0000
     1.0000   1.0000   1.0000   1.0000   1.0000   1.0000   1.0000   1.0000
     1.0000   1.0000   1.0000   1.0000   1.0000   1.0000   1.0000   1.0000
     1.0000   1.0000   1.0000   1.0000   1.0000   1.0000   1.0000   1.0000
     1.0000   1.0000   1.0000   1.0000   1.0000   1.0000   1.0000   1.0000
     1.0000   1.0000   1.0000   1.0000   1.0000   1.0000   1.0000   1.0000
     1.0000   1.0000   1.0000   1.0000   1.0000   1.0000   1.0000   1.0000
     1.0000   1.0000   1.0000   1.0000   1.0000   1.0000   1.0000   1.0000
     1.0000   1.0000   1.0000   1.0000   1.0000   1.0000   1.0000   1.0000
     1.0000   1.0000   1.0000   1.0000   1.0000   1.0000   1.0000   1.0000
     1.0000   1.0000   1.0000   1.0000   1.0000   1.0000   1.0000   1.0000
     1.0000   1.0000   1.0000   1.0000   1.0000   1.0000   1.0000   1.0000
     1.0000   1.0000

          k = 0.0000 0.3849 0.0633 ( 74576 PWs)   bands (ev):

    -8.3891  -8.3889  -8.3887  -8.3881  -8.3873  -8.3870  -8.3397  -8.3395
    -8.3369  -8.3365  -8.3365  -8.3365  -8.2774  -8.2774  -8.2772  -8.2769
    -8.2768  -8.2767  -8.2266  -8.2265  -8.2264  -8.2263  -8.2263  -8.2262
    -7.6476  -7.6465  -7.6424  -7.6423  -7.6389  -7.6387  -7.5432  -7.5430
    -7.5386  -7.5383  -7.5366  -7.5365  -7.4485  -7.4483  -7.4482  -7.4481
    -7.4481  -7.4480  -7.3636  -7.3634  -7.3634  -7.3633  -7.3633  -7.3633
    -7.3195  -7.3194  -7.3187  -7.3187  -7.3185  -7.3185  -7.2218  -7.2215
    -7.2215  -7.2214  -7.2212  -7.2210  -5.9306  -5.9258  -5.9254  -5.9183
    -5.8466  -5.8452  -5.7747  -5.7732  -5.6978  -5.6912  -5.6902  -5.6857
     0.4931   0.4955   0.4979   0.4997   0.5842   0.5852   1.4661   1.4667
     1.6413   1.6428   1.6458   1.6469   2.8099   2.8158   2.8709   2.8714
     3.3245   3.3380   3.5847   3.6022   4.2669   4.2736   4.3551   4.3625
     4.4014   4.4054   4.5178   4.5215   4.5316   4.5470   4.6514   4.6646
     4.7512   4.7660   4.7753   4.7850   5.3605   5.3737   5.4900   5.4957
     5.5825   5.5876

     occupation numbers 
     1.0000   1.0000   1.0000   1.0000   1.0000   1.0000   1.0000   1.0000
     1.0000   1.0000   1.0000   1.0000   1.0000   1.0000   1.0000   1.0000
     1.0000   1.0000   1.0000   1.0000   1.0000   1.0000   1.0000   1.0000
     1.0000   1.0000   1.0000   1.0000   1.0000   1.0000   1.0000   1.0000
     1.0000   1.0000   1.0000   1.0000   1.0000   1.0000   1.0000   1.0000
     1.0000   1.0000   1.0000   1.0000   1.0000   1.0000   1.0000   1.0000
     1.0000   1.0000   1.0000   1.0000   1.0000   1.0000   1.0000   1.0000
     1.0000   1.0000   1.0000   1.0000   1.0000   1.0000   1.0000   1.0000
     1.0000   1.0000   1.0000   1.0000   1.0000   1.0000   1.0000   1.0000
     1.0000   1.0000   1.0000   1.0000   1.0000   1.0000   1.0000   1.0000
     1.0000   1.0000   1.0000   1.0000   1.0000   1.0000   1.0000   1.0000
     1.0000   1.0000   1.0000   1.0000   1.0000   1.0000   1.0000   1.0000
     1.0000   1.0000   1.0000   1.0000   1.0000   1.0000   1.0000   1.0000
     1.0000   1.0000   1.0000   1.0000   1.0000   1.0000   1.0000   1.0000
     1.0000   1.0000

          k = 0.0000 0.4619-0.0000 ( 74608 PWs)   bands (ev):

    -8.4000  -8.3996  -8.3996  -8.3982  -8.3975  -8.3975  -8.3630  -8.3627
    -8.3619  -8.3606  -8.3595  -8.3593  -8.2775  -8.2774  -8.2772  -8.2770
    -8.2770  -8.2768  -8.2262  -8.2262  -8.2261  -8.2260  -8.2259  -8.2258
    -7.6557  -7.6534  -7.6533  -7.6508  -7.6488  -7.6481  -7.5516  -7.5505
    -7.5498  -7.5479  -7.5463  -7.5452  -7.4502  -7.4502  -7.4502  -7.4501
    -7.4501  -7.4500  -7.3582  -7.3581  -7.3581  -7.3580  -7.3579  -7.3579
    -7.3174  -7.3174  -7.3171  -7.3171  -7.3167  -7.3167  -7.2136  -7.2135
    -7.2132  -7.2131  -7.2130  -7.2129  -5.7287  -5.7276  -5.6949  -5.6851
    -5.6713  -5.6620  -5.5798  -5.5708  -5.5560  -5.5470  -5.5122  -5.5112
     0.3053   0.3056   0.3830   0.3854   0.3995   0.4017   1.1487   1.1512
     1.1516   1.1562   1.2805   1.2817   2.8097   2.8158   3.1459   3.1491
     3.1619   3.1706   3.9888   3.9920   4.0002   4.0094   4.2634   4.2635
     4.3007   4.3025   4.3273   4.3463   4.4771   4.5128   4.5434   4.5762
     4.5940   4.6244   4.6654   4.6702   5.0037   5.0175   5.2199   5.2252
     5.2724   5.2806

     occupation numbers 
     1.0000   1.0000   1.0000   1.0000   1.0000   1.0000   1.0000   1.0000
     1.0000   1.0000   1.0000   1.0000   1.0000   1.0000   1.0000   1.0000
     1.0000   1.0000   1.0000   1.0000   1.0000   1.0000   1.0000   1.0000
     1.0000   1.0000   1.0000   1.0000   1.0000   1.0000   1.0000   1.0000
     1.0000   1.0000   1.0000   1.0000   1.0000   1.0000   1.0000   1.0000
     1.0000   1.0000   1.0000   1.0000   1.0000   1.0000   1.0000   1.0000
     1.0000   1.0000   1.0000   1.0000   1.0000   1.0000   1.0000   1.0000
     1.0000   1.0000   1.0000   1.0000   1.0000   1.0000   1.0000   1.0000
     1.0000   1.0000   1.0000   1.0000   1.0000   1.0000   1.0000   1.0000
     1.0000   1.0000   1.0000   1.0000   1.0000   1.0000   1.0000   1.0000
     1.0000   1.0000   1.0000   1.0000   1.0000   1.0000   1.0000   1.0000
     1.0000   1.0000   1.0000   1.0000   1.0000   1.0000   1.0000   1.0000
     1.0000   1.0000   1.0000   1.0000   1.0000   1.0000   1.0000   1.0000
     1.0000   1.0000   1.0000   1.0000   1.0000   1.0000   1.0000   1.0000
     1.0000   1.0000

          k = 0.0000 0.4619 0.0317 ( 74594 PWs)   bands (ev):

    -8.4000  -8.4000  -8.3991  -8.3981  -8.3976  -8.3976  -8.3632  -8.3631
    -8.3610  -8.3602  -8.3599  -8.3596  -8.2775  -8.2774  -8.2771  -8.2771
    -8.2769  -8.2769  -8.2262  -8.2261  -8.2261  -8.2260  -8.2259  -8.2259
    -7.6559  -7.6544  -7.6520  -7.6503  -7.6492  -7.6484  -7.5517  -7.5515
    -7.5484  -7.5473  -7.5467  -7.5457  -7.4503  -7.4502  -7.4502  -7.4501
    -7.4501  -7.4500  -7.3582  -7.3581  -7.3581  -7.3580  -7.3579  -7.3579
    -7.3175  -7.3175  -7.3169  -7.3169  -7.3168  -7.3168  -7.2136  -7.2134
    -7.2133  -7.2130  -7.2130  -7.2129  -5.7248  -5.7212  -5.7094  -5.7011
    -5.6535  -5.6465  -5.5957  -5.5888  -5.5396  -5.5320  -5.5187  -5.5155
     0.3125   0.3136   0.3570   0.3594   0.4191   0.4205   1.1203   1.1246
     1.1838   1.1876   1.2758   1.2762   2.8224   2.8296   3.0477   3.0521
     3.2708   3.2734   3.8519   3.8607   4.1458   4.1460   4.2546   4.2586
     4.2675   4.2680   4.3567   4.3808   4.4801   4.5188   4.5204   4.5510
     4.5961   4.6313   4.6553   4.6664   5.0147   5.0303   5.2015   5.2071
     5.2832   5.2838

     occupation numbers 
     1.0000   1.0000   1.0000   1.0000   1.0000   1.0000   1.0000   1.0000
     1.0000   1.0000   1.0000   1.0000   1.0000   1.0000   1.0000   1.0000
     1.0000   1.0000   1.0000   1.0000   1.0000   1.0000   1.0000   1.0000
     1.0000   1.0000   1.0000   1.0000   1.0000   1.0000   1.0000   1.0000
     1.0000   1.0000   1.0000   1.0000   1.0000   1.0000   1.0000   1.0000
     1.0000   1.0000   1.0000   1.0000   1.0000   1.0000   1.0000   1.0000
     1.0000   1.0000   1.0000   1.0000   1.0000   1.0000   1.0000   1.0000
     1.0000   1.0000   1.0000   1.0000   1.0000   1.0000   1.0000   1.0000
     1.0000   1.0000   1.0000   1.0000   1.0000   1.0000   1.0000   1.0000
     1.0000   1.0000   1.0000   1.0000   1.0000   1.0000   1.0000   1.0000
     1.0000   1.0000   1.0000   1.0000   1.0000   1.0000   1.0000   1.0000
     1.0000   1.0000   1.0000   1.0000   1.0000   1.0000   1.0000   1.0000
     1.0000   1.0000   1.0000   1.0000   1.0000   1.0000   1.0000   1.0000
     1.0000   1.0000   1.0000   1.0000   1.0000   1.0000   1.0000   1.0000
     1.0000   1.0000

          k = 0.0000 0.4619 0.0633 ( 74559 PWs)   bands (ev):

    -8.4002  -8.3998  -8.3987  -8.3985  -8.3980  -8.3972  -8.3634  -8.3628
    -8.3610  -8.3603  -8.3601  -8.3593  -8.2775  -8.2774  -8.2773  -8.2770
    -8.2769  -8.2768  -8.2262  -8.2261  -8.2261  -8.2260  -8.2259  -8.2259
    -7.6553  -7.6549  -7.6520  -7.6506  -7.6493  -7.6481  -7.5519  -7.5513
    -7.5486  -7.5470  -7.5466  -7.5459  -7.4503  -7.4502  -7.4501  -7.4501
    -7.4501  -7.4500  -7.3582  -7.3581  -7.3580  -7.3580  -7.3579  -7.3579
    -7.3175  -7.3174  -7.3170  -7.3169  -7.3168  -7.3168  -7.2136  -7.2134
    -7.2133  -7.2131  -7.2129  -7.2129  -5.7203  -5.7165  -5.7140  -5.7107
    -5.6451  -5.6424  -5.5998  -5.5973  -5.5295  -5.5262  -5.5242  -5.5205
     0.3278   0.3295   0.3336   0.3356   0.4285   0.4288   1.1032   1.1058
     1.2193   1.2233   1.2564   1.2587   2.8648   2.8725   2.9508   2.9517
     3.3730   3.3877   3.7354   3.7562   4.2320   4.2330   4.2599   4.2610
     4.2671   4.2727   4.3768   4.4005   4.4330   4.4585   4.5194   4.5411
     4.6215   4.6350   4.6415   4.6530   5.0485   5.0640   5.1290   5.1300
     5.3288   5.3323

     occupation numbers 
     1.0000   1.0000   1.0000   1.0000   1.0000   1.0000   1.0000   1.0000
     1.0000   1.0000   1.0000   1.0000   1.0000   1.0000   1.0000   1.0000
     1.0000   1.0000   1.0000   1.0000   1.0000   1.0000   1.0000   1.0000
     1.0000   1.0000   1.0000   1.0000   1.0000   1.0000   1.0000   1.0000
     1.0000   1.0000   1.0000   1.0000   1.0000   1.0000   1.0000   1.0000
     1.0000   1.0000   1.0000   1.0000   1.0000   1.0000   1.0000   1.0000
     1.0000   1.0000   1.0000   1.0000   1.0000   1.0000   1.0000   1.0000
     1.0000   1.0000   1.0000   1.0000   1.0000   1.0000   1.0000   1.0000
     1.0000   1.0000   1.0000   1.0000   1.0000   1.0000   1.0000   1.0000
     1.0000   1.0000   1.0000   1.0000   1.0000   1.0000   1.0000   1.0000
     1.0000   1.0000   1.0000   1.0000   1.0000   1.0000   1.0000   1.0000
     1.0000   1.0000   1.0000   1.0000   1.0000   1.0000   1.0000   1.0000
     1.0000   1.0000   1.0000   1.0000   1.0000   1.0000   1.0000   1.0000
     1.0000   1.0000   1.0000   1.0000   1.0000   1.0000   1.0000   1.0000
     1.0000   1.0000

          k = 0.0000 0.5389-0.0000 ( 74580 PWs)   bands (ev):

    -8.4053  -8.4052  -8.4037  -8.4027  -8.4026  -8.4022  -8.3771  -8.3767
[...]
     5.0692   5.0760

     occupation numbers 
     1.0000   1.0000   1.0000   1.0000   1.0000   1.0000   1.0000   1.0000
     1.0000   1.0000   1.0000   1.0000   1.0000   1.0000   1.0000   1.0000
     1.0000   1.0000   1.0000   1.0000   1.0000   1.0000   1.0000   1.0000
     1.0000   1.0000   1.0000   1.0000   1.0000   1.0000   1.0000   1.0000
     1.0000   1.0000   1.0000   1.0000   1.0000   1.0000   1.0000   1.0000
     1.0000   1.0000   1.0000   1.0000   1.0000   1.0000   1.0000   1.0000
     1.0000   1.0000   1.0000   1.0000   1.0000   1.0000   1.0000   1.0000
     1.0000   1.0000   1.0000   1.0000   1.0000   1.0000   1.0000   1.0000
     1.0000   1.0000   1.0000   1.0000   1.0000   1.0000   1.0000   1.0000
     1.0000   1.0000   1.0000   1.0000   1.0000   1.0000   1.0000   1.0000
     1.0000   1.0000   1.0000   1.0000   1.0000   1.0000   1.0000   1.0000
     1.0000   1.0000   1.0000   1.0000   1.0000   1.0000   1.0000   1.0000
     1.0000   1.0000   1.0000   1.0000   1.0000   1.0000   1.0000   1.0000
     1.0000   1.0000   1.0000   1.0000   1.0000   1.0000   1.0000   1.0000
     1.0000   1.0000

          k =-0.1333-0.5389 0.0633 ( 74600 PWs)   bands (ev):

    -8.4167  -8.4155  -8.4154  -8.3950  -8.3947  -8.3931  -8.3817  -8.3808
    -8.3804  -8.3786  -8.3778  -8.3776  -8.2990  -8.2986  -8.2986  -8.2455
    -8.2455  -8.2454  -8.2309  -8.2309  -8.2307  -8.2167  -8.2167  -8.2165
    -7.7111  -7.7106  -7.7064  -7.6114  -7.6112  -7.6087  -7.5711  -7.5688
    -7.5685  -7.5641  -7.5616  -7.5614  -7.4726  -7.4725  -7.4725  -7.4056
    -7.4055  -7.4055  -7.3636  -7.3635  -7.3631  -7.3579  -7.3579  -7.3578
    -7.3272  -7.3272  -7.3269  -7.3104  -7.3104  -7.3102  -7.2119  -7.2118
    -7.2118  -7.2052  -7.2052  -7.2052  -5.5509  -5.5331  -5.5164  -5.5047
    -5.4999  -5.4887  -5.4343  -5.4220  -5.4215  -5.4105  -5.3858  -5.3780
     0.2644   0.2667   0.2917   0.2952   0.3102   0.3394   0.9662   1.0072
     1.0228   1.0513   1.0654   1.0972   3.0912   3.1202   3.1219   3.1313
     3.1773   3.2077   3.6251   3.6436   3.7222   3.7533   3.7746   3.7936
     3.8203   3.8614   3.9296   3.9316   3.9573   3.9906   4.2869   4.3286
     4.3825   4.4330   4.5105   4.5322   4.8770   4.9066   5.0212   5.0536
     5.0627   5.0751

     occupation numbers 
     1.0000   1.0000   1.0000   1.0000   1.0000   1.0000   1.0000   1.0000
     1.0000   1.0000   1.0000   1.0000   1.0000   1.0000   1.0000   1.0000
     1.0000   1.0000   1.0000   1.0000   1.0000   1.0000   1.0000   1.0000
     1.0000   1.0000   1.0000   1.0000   1.0000   1.0000   1.0000   1.0000
     1.0000   1.0000   1.0000   1.0000   1.0000   1.0000   1.0000   1.0000
     1.0000   1.0000   1.0000   1.0000   1.0000   1.0000   1.0000   1.0000
     1.0000   1.0000   1.0000   1.0000   1.0000   1.0000   1.0000   1.0000
     1.0000   1.0000   1.0000   1.0000   1.0000   1.0000   1.0000   1.0000
     1.0000   1.0000   1.0000   1.0000   1.0000   1.0000   1.0000   1.0000
     1.0000   1.0000   1.0000   1.0000   1.0000   1.0000   1.0000   1.0000
     1.0000   1.0000   1.0000   1.0000   1.0000   1.0000   1.0000   1.0000
     1.0000   1.0000   1.0000   1.0000   1.0000   1.0000   1.0000   1.0000
     1.0000   1.0000   1.0000   1.0000   1.0000   1.0000   1.0000   1.0000
     1.0000   1.0000   1.0000   1.0000   1.0000   1.0000   1.0000   1.0000
     1.0000   1.0000

          k =-0.2000-0.4234 0.0317 ( 74565 PWs)   bands (ev):

    -8.4134  -8.4125  -8.4122  -8.3896  -8.3888  -8.3871  -8.3659  -8.3656
    -8.3653  -8.3643  -8.3625  -8.3619  -8.3039  -8.3033  -8.3031  -8.2372
    -8.2371  -8.2371  -8.2314  -8.2314  -8.2312  -8.2150  -8.2149  -8.2148
    -7.7206  -7.7185  -7.7135  -7.5945  -7.5934  -7.5907  -7.5742  -7.5718
    -7.5703  -7.5699  -7.5669  -7.5661  -7.4670  -7.4669  -7.4668  -7.3882
    -7.3882  -7.3882  -7.3729  -7.3725  -7.3718  -7.3667  -7.3666  -7.3666
    -7.3299  -7.3298  -7.3296  -7.3139  -7.3139  -7.3137  -7.2181  -7.2180
    -7.2179  -7.2093  -7.2093  -7.2092  -5.6900  -5.6672  -5.6549  -5.6349
    -5.6256  -5.6088  -5.5433  -5.5256  -5.5130  -5.4990  -5.4760  -5.4661
     0.4095   0.4398   0.4603   0.4870   0.4910   0.5168   1.2764   1.2984
     1.3325   1.3517   1.3730   1.4285   3.0203   3.0376   3.1574   3.1824
     3.2678   3.2912   3.4326   3.4663   3.4843   3.4950   3.5238   3.5782
     3.5850   3.6057   3.7460   3.7475   3.7643   3.7907   4.1501   4.1812
     4.4246   4.4691   4.7459   4.8072   5.1547   5.1765   5.2857   5.3124
     5.3304   5.3850

     occupation numbers 
     1.0000   1.0000   1.0000   1.0000   1.0000   1.0000   1.0000   1.0000
     1.0000   1.0000   1.0000   1.0000   1.0000   1.0000   1.0000   1.0000
     1.0000   1.0000   1.0000   1.0000   1.0000   1.0000   1.0000   1.0000
     1.0000   1.0000   1.0000   1.0000   1.0000   1.0000   1.0000   1.0000
     1.0000   1.0000   1.0000   1.0000   1.0000   1.0000   1.0000   1.0000
     1.0000   1.0000   1.0000   1.0000   1.0000   1.0000   1.0000   1.0000
     1.0000   1.0000   1.0000   1.0000   1.0000   1.0000   1.0000   1.0000
     1.0000   1.0000   1.0000   1.0000   1.0000   1.0000   1.0000   1.0000
     1.0000   1.0000   1.0000   1.0000   1.0000   1.0000   1.0000   1.0000
     1.0000   1.0000   1.0000   1.0000   1.0000   1.0000   1.0000   1.0000
     1.0000   1.0000   1.0000   1.0000   1.0000   1.0000   1.0000   1.0000
     1.0000   1.0000   1.0000   1.0000   1.0000   1.0000   1.0000   1.0000
     1.0000   1.0000   1.0000   1.0000   1.0000   1.0000   1.0000   1.0000
     1.0000   1.0000   1.0000   1.0000   1.0000   1.0000   1.0000   1.0000
     1.0000   1.0000

          k =-0.2000-0.4234 0.0633 ( 74546 PWs)   bands (ev):

    -8.4133  -8.4129  -8.4120  -8.3898  -8.3882  -8.3874  -8.3658  -8.3658
    -8.3653  -8.3639  -8.3630  -8.3617  -8.3038  -8.3035  -8.3030  -8.2372
    -8.2372  -8.2371  -8.2315  -8.2314  -8.2313  -8.2150  -8.2149  -8.2148
    -7.7215  -7.7167  -7.7144  -7.5949  -7.5924  -7.5911  -7.5739  -7.5727
    -7.5698  -7.5693  -7.5678  -7.5658  -7.4670  -7.4670  -7.4668  -7.3882
    -7.3882  -7.3882  -7.3730  -7.3722  -7.3719  -7.3667  -7.3666  -7.3666
    -7.3300  -7.3297  -7.3296  -7.3140  -7.3138  -7.3138  -7.2181  -7.2181
    -7.2179  -7.2093  -7.2093  -7.2092  -5.6841  -5.6697  -5.6618  -5.6485
    -5.6084  -5.5952  -5.5604  -5.5398  -5.4975  -5.4852  -5.4823  -5.4716
     0.4077   0.4382   0.4700   0.4790   0.4998   0.5095   1.2759   1.2997
     1.3295   1.3561   1.3723   1.4272   3.0644   3.0786   3.1030   3.1273
     3.2552   3.2731   3.4117   3.4403   3.4528   3.4702   3.6092   3.6362
     3.6445   3.6965   3.7157   3.7339   3.7943   3.8416   3.9824   4.0134
     4.5605   4.6099   4.6926   4.7508   5.1606   5.1799   5.2807   5.3264
     5.3324   5.3594

     occupation numbers 
     1.0000   1.0000   1.0000   1.0000   1.0000   1.0000   1.0000   1.0000
     1.0000   1.0000   1.0000   1.0000   1.0000   1.0000   1.0000   1.0000
     1.0000   1.0000   1.0000   1.0000   1.0000   1.0000   1.0000   1.0000
     1.0000   1.0000   1.0000   1.0000   1.0000   1.0000   1.0000   1.0000
     1.0000   1.0000   1.0000   1.0000   1.0000   1.0000   1.0000   1.0000
     1.0000   1.0000   1.0000   1.0000   1.0000   1.0000   1.0000   1.0000
     1.0000   1.0000   1.0000   1.0000   1.0000   1.0000   1.0000   1.0000
     1.0000   1.0000   1.0000   1.0000   1.0000   1.0000   1.0000   1.0000
     1.0000   1.0000   1.0000   1.0000   1.0000   1.0000   1.0000   1.0000
     1.0000   1.0000   1.0000   1.0000   1.0000   1.0000   1.0000   1.0000
     1.0000   1.0000   1.0000   1.0000   1.0000   1.0000   1.0000   1.0000
     1.0000   1.0000   1.0000   1.0000   1.0000   1.0000   1.0000   1.0000
     1.0000   1.0000   1.0000   1.0000   1.0000   1.0000   1.0000   1.0000
     1.0000   1.0000   1.0000   1.0000   1.0000   1.0000   1.0000   1.0000
     1.0000   1.0000

          k =-0.2000-0.5004 0.0317 ( 74601 PWs)   bands (ev):

    -8.4190  -8.4177  -8.4177  -8.3962  -8.3961  -8.3940  -8.3804  -8.3803
    -8.3801  -8.3781  -8.3758  -8.3757  -8.3043  -8.3039  -8.3038  -8.2371
    -8.2371  -8.2371  -8.2277  -8.2276  -8.2275  -8.2127  -8.2126  -8.2125
    -7.7294  -7.7293  -7.7250  -7.5964  -7.5963  -7.5946  -7.5780  -7.5760
    -7.5758  -7.5758  -7.5736  -7.5736  -7.4704  -7.4704  -7.4703  -7.3858
    -7.3857  -7.3857  -7.3737  -7.3737  -7.3731  -7.3614  -7.3613  -7.3613
    -7.3280  -7.3280  -7.3278  -7.3135  -7.3134  -7.3133  -7.2137  -7.2137
    -7.2136  -7.2049  -7.2048  -7.2048  -5.5394  -5.5163  -5.5018  -5.4947
    -5.4819  -5.4753  -5.4186  -5.4112  -5.4039  -5.3973  -5.3725  -5.3627
     0.3227   0.3626   0.3653   0.3706   0.4048   0.4120   1.0783   1.1101
     1.1396   1.1471   1.1771   1.2121   2.9583   2.9934   3.0242   3.0306
     3.0520   3.0639   3.3197   3.3652   3.4258   3.4737   3.4760   3.4971
     3.5322   3.5377   3.7025   3.7224   3.7957   3.8363   4.3536   4.3894
     4.4188   4.4674   4.6458   4.6905   4.8418   4.8887   5.0427   5.0796
     5.1210   5.1714

     occupation numbers 
     1.0000   1.0000   1.0000   1.0000   1.0000   1.0000   1.0000   1.0000
     1.0000   1.0000   1.0000   1.0000   1.0000   1.0000   1.0000   1.0000
     1.0000   1.0000   1.0000   1.0000   1.0000   1.0000   1.0000   1.0000
     1.0000   1.0000   1.0000   1.0000   1.0000   1.0000   1.0000   1.0000
     1.0000   1.0000   1.0000   1.0000   1.0000   1.0000   1.0000   1.0000
     1.0000   1.0000   1.0000   1.0000   1.0000   1.0000   1.0000   1.0000
     1.0000   1.0000   1.0000   1.0000   1.0000   1.0000   1.0000   1.0000
     1.0000   1.0000   1.0000   1.0000   1.0000   1.0000   1.0000   1.0000
     1.0000   1.0000   1.0000   1.0000   1.0000   1.0000   1.0000   1.0000
     1.0000   1.0000   1.0000   1.0000   1.0000   1.0000   1.0000   1.0000
     1.0000   1.0000   1.0000   1.0000   1.0000   1.0000   1.0000   1.0000
     1.0000   1.0000   1.0000   1.0000   1.0000   1.0000   1.0000   1.0000
     1.0000   1.0000   1.0000   1.0000   1.0000   1.0000   1.0000   1.0000
     1.0000   1.0000   1.0000   1.0000   1.0000   1.0000   1.0000   1.0000
     1.0000   1.0000

          k =-0.2000-0.5004 0.0633 ( 74605 PWs)   bands (ev):

    -8.4189  -8.4180  -8.4174  -8.3966  -8.3955  -8.3942  -8.3804  -8.3803
    -8.3801  -8.3779  -8.3763  -8.3754  -8.3043  -8.3040  -8.3038  -8.2371
    -8.2371  -8.2371  -8.2277  -8.2276  -8.2275  -8.2127  -8.2126  -8.2125
    -7.7303  -7.7282  -7.7253  -7.5968  -7.5958  -7.5947  -7.5779  -7.5766
    -7.5756  -7.5752  -7.5741  -7.5734  -7.4704  -7.4704  -7.4704  -7.3858
    -7.3857  -7.3857  -7.3739  -7.3735  -7.3731  -7.3614  -7.3613  -7.3613
    -7.3281  -7.3280  -7.3279  -7.3135  -7.3134  -7.3133  -7.2137  -7.2137
    -7.2136  -7.2049  -7.2048  -7.2048  -5.5367  -5.5152  -5.5139  -5.4942
    -5.4785  -5.4610  -5.4349  -5.4183  -5.3974  -5.3850  -5.3753  -5.3651
     0.3260   0.3526   0.3664   0.3800   0.3920   0.4211   1.0715   1.1267
     1.1336   1.1372   1.1943   1.2008   2.9618   2.9993   2.9993   3.0286
     3.0632   3.0911   3.2830   3.3352   3.4403   3.4711   3.5056   3.5188
     3.5297   3.5696   3.6208   3.6435   3.9007   3.9417   4.2233   4.2589
     4.5201   4.5706   4.6180   4.6592   4.8553   4.8969   5.0759   5.0849
     5.1253   5.1263

     occupation numbers 
     1.0000   1.0000   1.0000   1.0000   1.0000   1.0000   1.0000   1.0000
     1.0000   1.0000   1.0000   1.0000   1.0000   1.0000   1.0000   1.0000
     1.0000   1.0000   1.0000   1.0000   1.0000   1.0000   1.0000   1.0000
     1.0000   1.0000   1.0000   1.0000   1.0000   1.0000   1.0000   1.0000
     1.0000   1.0000   1.0000   1.0000   1.0000   1.0000   1.0000   1.0000
     1.0000   1.0000   1.0000   1.0000   1.0000   1.0000   1.0000   1.0000
     1.0000   1.0000   1.0000   1.0000   1.0000   1.0000   1.0000   1.0000
     1.0000   1.0000   1.0000   1.0000   1.0000   1.0000   1.0000   1.0000
     1.0000   1.0000   1.0000   1.0000   1.0000   1.0000   1.0000   1.0000
     1.0000   1.0000   1.0000   1.0000   1.0000   1.0000   1.0000   1.0000
     1.0000   1.0000   1.0000   1.0000   1.0000   1.0000   1.0000   1.0000
     1.0000   1.0000   1.0000   1.0000   1.0000   1.0000   1.0000   1.0000
     1.0000   1.0000   1.0000   1.0000   1.0000   1.0000   1.0000   1.0000
     1.0000   1.0000   1.0000   1.0000   1.0000   1.0000   1.0000   1.0000
     1.0000   1.0000

          k =-0.2667-0.5389 0.0317 ( 74620 PWs)   bands (ev):

    -8.4215  -8.4206  -8.4206  -8.4016  -8.4015  -8.4003  -8.3898  -8.3898
    -8.3895  -8.3814  -8.3802  -8.3801  -8.3067  -8.3065  -8.3064  -8.2369
    -8.2369  -8.2369  -8.2189  -8.2189  -8.2188  -8.2089  -8.2088  -8.2088
    -7.7443  -7.7442  -7.7419  -7.5896  -7.5893  -7.5891  -7.5857  -7.5847
    -7.5846  -7.5836  -7.5836  -7.5835  -7.4694  -7.4693  -7.4693  -7.3819
    -7.3819  -7.3815  -7.3709  -7.3708  -7.3708  -7.3617  -7.3616  -7.3616
    -7.3265  -7.3265  -7.3264  -7.3172  -7.3172  -7.3171  -7.2125  -7.2125
    -7.2124  -7.2026  -7.2026  -7.2025  -5.4376  -5.4125  -5.4106  -5.4105
    -5.3873  -5.3872  -5.3439  -5.3438  -5.3315  -5.3314  -5.3166  -5.3059
     0.3421   0.3567   0.3569   0.3976   0.4117   0.4130   1.0719   1.0872
     1.0936   1.1574   1.1775   1.1812   2.7028   2.7237   2.7477   2.7658
     2.7816   2.8334   2.9840   3.0628   3.0674   3.0913   3.1371   3.1618
     3.6829   3.7189   3.9149   3.9394   3.9519   3.9869   4.4034   4.4141
     4.4545   4.4702   4.5522   4.5896   4.7538   4.8301   4.8441   4.9089
     4.9836   5.0345

     occupation numbers 
     1.0000   1.0000   1.0000   1.0000   1.0000   1.0000   1.0000   1.0000
     1.0000   1.0000   1.0000   1.0000   1.0000   1.0000   1.0000   1.0000
     1.0000   1.0000   1.0000   1.0000   1.0000   1.0000   1.0000   1.0000
     1.0000   1.0000   1.0000   1.0000   1.0000   1.0000   1.0000   1.0000
     1.0000   1.0000   1.0000   1.0000   1.0000   1.0000   1.0000   1.0000
     1.0000   1.0000   1.0000   1.0000   1.0000   1.0000   1.0000   1.0000
     1.0000   1.0000   1.0000   1.0000   1.0000   1.0000   1.0000   1.0000
     1.0000   1.0000   1.0000   1.0000   1.0000   1.0000   1.0000   1.0000
     1.0000   1.0000   1.0000   1.0000   1.0000   1.0000   1.0000   1.0000
     1.0000   1.0000   1.0000   1.0000   1.0000   1.0000   1.0000   1.0000
     1.0000   1.0000   1.0000   1.0000   1.0000   1.0000   1.0000   1.0000
     1.0000   1.0000   1.0000   1.0000   1.0000   1.0000   1.0000   1.0000
     1.0000   1.0000   1.0000   1.0000   1.0000   1.0000   1.0000   1.0000
     1.0000   1.0000   1.0000   1.0000   1.0000   1.0000   1.0000   1.0000
     1.0000   1.0000

          k =-0.2667-0.5389 0.0633 ( 74606 PWs)   bands (ev):

    -8.4215  -8.4208  -8.4204  -8.4018  -8.4013  -8.4003  -8.3898  -8.3897
    -8.3895  -8.3814  -8.3804  -8.3799  -8.3067  -8.3065  -8.3064  -8.2369
    -8.2369  -8.2368  -8.2189  -8.2189  -8.2188  -8.2089  -8.2088  -8.2088
    -7.7447  -7.7437  -7.7420  -7.5895  -7.5893  -7.5892  -7.5857  -7.5850
    -7.5842  -7.5836  -7.5836  -7.5836  -7.4694  -7.4693  -7.4693  -7.3820
    -7.3818  -7.3816  -7.3709  -7.3708  -7.3708  -7.3617  -7.3616  -7.3616
    -7.3265  -7.3265  -7.3264  -7.3172  -7.3172  -7.3171  -7.2125  -7.2125
    -7.2124  -7.2026  -7.2026  -7.2025  -5.4364  -5.4194  -5.4113  -5.4014
    -5.3957  -5.3782  -5.3530  -5.3406  -5.3349  -5.3229  -5.3178  -5.3070
     0.3428   0.3530   0.3599   0.3987   0.4078   0.4159   1.0714   1.0893
     1.0921   1.1578   1.1758   1.1825   2.7090   2.7157   2.7512   2.7617
     2.7842   2.8380   2.9766   3.0587   3.0730   3.0871   3.1444   3.1565
     3.7071   3.7448   3.8276   3.8623   4.0209   4.0721   4.3460   4.3977
     4.4760   4.5275   4.5291   4.5585   4.7352   4.8107   4.8778   4.9425
     4.9770   5.0255

     occupation numbers 
     1.0000   1.0000   1.0000   1.0000   1.0000   1.0000   1.0000   1.0000
     1.0000   1.0000   1.0000   1.0000   1.0000   1.0000   1.0000   1.0000
     1.0000   1.0000   1.0000   1.0000   1.0000   1.0000   1.0000   1.0000
     1.0000   1.0000   1.0000   1.0000   1.0000   1.0000   1.0000   1.0000
     1.0000   1.0000   1.0000   1.0000   1.0000   1.0000   1.0000   1.0000
     1.0000   1.0000   1.0000   1.0000   1.0000   1.0000   1.0000   1.0000
     1.0000   1.0000   1.0000   1.0000   1.0000   1.0000   1.0000   1.0000
     1.0000   1.0000   1.0000   1.0000   1.0000   1.0000   1.0000   1.0000
     1.0000   1.0000   1.0000   1.0000   1.0000   1.0000   1.0000   1.0000
     1.0000   1.0000   1.0000   1.0000   1.0000   1.0000   1.0000   1.0000
     1.0000   1.0000   1.0000   1.0000   1.0000   1.0000   1.0000   1.0000
     1.0000   1.0000   1.0000   1.0000   1.0000   1.0000   1.0000   1.0000
     1.0000   1.0000   1.0000   1.0000   1.0000   1.0000   1.0000   1.0000
     1.0000   1.0000   1.0000   1.0000   1.0000   1.0000   1.0000   1.0000
     1.0000   1.0000

     highest occupied level (ev):     6.5504

!    total energy              =    -739.71578071 Ry
     Harris-Foulkes estimate   =    -739.71578071 Ry
     estimated scf accuracy    <          3.3E-10 Ry

     The total energy is the sum of the following terms:

     one-electron contribution =    -334.84477514 Ry
     hartree contribution      =     222.78470630 Ry
     xc contribution           =    -107.00266827 Ry
     ewald contribution        =    -520.65304360 Ry

     convergence has been achieved in  14 iterations

     Writing output data file InSegamma.save
 
     init_run     :     95.81s CPU    100.17s WALL (       1 calls)
     electrons    :   3870.52s CPU   4043.69s WALL (       1 calls)

     Called by init_run:
     wfcinit      :     95.03s CPU     99.10s WALL (       1 calls)
     wfcinit:atom :      0.43s CPU      0.63s WALL (     119 calls)
     wfcinit:wfcr :     92.29s CPU     95.84s WALL (     119 calls)
     potinit      :      0.16s CPU      0.17s WALL (       1 calls)

     Called by electrons:
     c_bands      :   3477.89s CPU   3638.90s WALL (      15 calls)
     sum_band     :    391.89s CPU    403.81s WALL (      15 calls)
     v_of_rho     :      0.37s CPU      0.39s WALL (      15 calls)
     v_h          :      0.03s CPU      0.03s WALL (      15 calls)
     v_xc         :      0.34s CPU      0.36s WALL (      15 calls)
     mix_rho      :      0.28s CPU      0.37s WALL (      15 calls)

     Called by c_bands:
     init_us_2    :     13.19s CPU     14.15s WALL (    3689 calls)
     cegterg      :   3166.41s CPU   3325.17s WALL (    1785 calls)

     Called by sum_band:

     Called by *egterg:
     h_psi        :   2401.97s CPU   2483.30s WALL (    8144 calls)
     g_psi        :     10.53s CPU     10.47s WALL (    6240 calls)
     cdiaghg      :    289.99s CPU    323.85s WALL (    7906 calls)
     cegterg:over :    213.33s CPU    220.90s WALL (    6240 calls)
     cegterg:upda :    181.25s CPU    197.93s WALL (    6240 calls)
     cegterg:last :     80.41s CPU     83.33s WALL (    1785 calls)
     cdiaghg:chol :     12.87s CPU     12.93s WALL (    7906 calls)
     cdiaghg:inve :     11.83s CPU     11.92s WALL (    7906 calls)
     cdiaghg:para :     56.93s CPU     86.51s WALL (   15812 calls)

     Called by h_psi:
     h_psi:pot    :   2387.46s CPU   2468.76s WALL (    8144 calls)
     h_psi:calbec :    257.75s CPU    266.23s WALL (    8144 calls)
     vloc_psi     :   1865.98s CPU   1930.74s WALL (    8144 calls)
     add_vuspsi   :    263.68s CPU    271.73s WALL (    8144 calls)

     General routines
     calbec       :    257.74s CPU    266.22s WALL (    8144 calls)
     fft          :      0.42s CPU      0.47s WALL (     256 calls)
     fftw         :   2135.55s CPU   2212.45s WALL ( 2589400 calls)
     davcio       :      0.00s CPU      0.48s WALL (     119 calls)
 
     Parallel routines
     fft_scatter  :   1229.51s CPU   1253.52s WALL ( 2589656 calls)
 
     PWSCF        :     1h 6m CPU        1h10m WALL

 
   This run was terminated on:  20:55:47   6Apr2022            

=------------------------------------------------------------------------------=
   JOB DONE.
=------------------------------------------------------------------------------=
