
     Program PWSCF v.6.1 (svn rev. 13369) starts on  7Apr2022 at 14:52:33 

     This program is part of the open-source Quantum ESPRESSO suite
     for quantum simulation of materials; please cite
         "P. Giannozzi et al., J. Phys.:Condens. Matter 21 395502 (2009);
          URL http://www.quantum-espresso.org", 
     in publications or presentations arising from this work. More details at
     http://www.quantum-espresso.org/quote

     Parallel version (MPI), running on    48 processors
     R & G space division:  proc/nbgrp/npool/nimage =      48
     Reading input from InSegamma_band.in
Warning: card &IONS ignored
Warning: card / ignored
Warning: card &CELL ignored
Warning: card     CELL_DOFREE='ALL' ignored
Warning: card / ignored

     Current dimensions of program PWSCF are:
     Max number of different atomic species (ntypx) = 10
     Max number of k-points (npk) =  40000
     Max angular momentum in pseudopotentials (lmaxx) =  3

     Atomic positions and unit cell read from directory:
     /share/inl/marcel/TB-SO/InSegamma_outdir/InSegamma.save/
 

     IMPORTANT: XC functional enforced from input :
     Exchange-correlation      = SLA+PW+PSX+PSC ( 1  4 10  8 0 0)
     Any further DFT definition will be discarded
     Please, verify this is what you really want


     Subspace diagonalization in iterative solution of the eigenvalue problem:
     one sub-group per band group will be used
     scalapack distributed-memory algorithm (size of sub-group:  4*  4 procs)

     Found symmetry operation: I + ( -0.3333  0.3333  0.3333)
     This is a supercell, fractional translations are disabled
 
     Parallelization info
     --------------------
     sticks:   dense  smooth     PW     G-vecs:    dense   smooth      PW
     Min          49      49     13                12411    12411    1751
     Max          50      50     14                12448    12448    1792
     Sum        2395    2395    649               596901   596901   85191
 


     bravais-lattice index     =            0
     lattice parameter (alat)  =       7.6027  a.u.
     unit-cell volume          =    2403.4339 (a.u.)^3
     number of atoms/cell      =           12
     number of atomic types    =            2
     number of electrons       =       114.00
     number of Kohn-Sham states=          120
     kinetic-energy cutoff     =     150.0000  Ry
     charge density cutoff     =     600.0000  Ry
     Exchange-correlation      = SLA+PW+PSX+PSC ( 1  4 10  8 0 0)
     Non magnetic calculation with spin-orbit


     celldm(1)=   7.602730  celldm(2)=   0.000000  celldm(3)=   0.000000
     celldm(4)=   0.000000  celldm(5)=   0.000000  celldm(6)=   0.000000

     crystal axes: (cart. coord. in units of alat)
               a(1) = (   1.000000   0.000000   0.000000 )  
               a(2) = (  -0.500000   0.866025   0.000000 )  
               a(3) = (   0.000000   0.000000   6.315283 )  

     reciprocal axes: (cart. coord. in units 2 pi/alat)
               b(1) = (  1.000000  0.577350 -0.000000 )  
               b(2) = (  0.000000  1.154701 -0.000000 )  
               b(3) = (  0.000000  0.000000  0.158346 )  


     PseudoPot. # 1 for In read from file:
     /home/mclaro/pseudo/ONCVPSP/sg15/In_ONCV_PBE_fr.upf
     MD5 check sum: eedf9510f5d1e34334b25b4623707d2f
     Pseudo is Norm-conserving, Zval = 13.0
     Generated using ONCVPSP code by D. R. Hamann
     Using radial grid of 1986 points, 10 beta functions with: 
                l(1) =   0
                l(2) =   0
                l(3) =   1
                l(4) =   1
                l(5) =   1
                l(6) =   1
                l(7) =   2
                l(8) =   2
                l(9) =   2
               l(10) =   2

     PseudoPot. # 2 for Se read from file:
     /home/mclaro/pseudo/ONCVPSP/sg15/Se_ONCV_PBE_fr.upf
     MD5 check sum: cfe1483cd39788255e734f67871220b5
     Pseudo is Norm-conserving, Zval =  6.0
     Generated using ONCVPSP code by D. R. Hamann
     Using radial grid of 1214 points, 10 beta functions with: 
                l(1) =   0
                l(2) =   0
                l(3) =   1
                l(4) =   1
                l(5) =   1
                l(6) =   1
                l(7) =   2
                l(8) =   2
                l(9) =   2
               l(10) =   2

     atomic species   valence    mass     pseudopotential
        In            13.00   114.81800     In( 1.00)
        Se             6.00    78.96000     Se( 1.00)

      6 Sym. Ops. (no inversion) found


                                    s                        frac. trans.

      isym =  1     identity                                     

 cryst.   s( 1) = (     1          0          0      )
                  (     0          1          0      )
                  (     0          0          1      )

 cart.    s( 1) = (  1.0000000  0.0000000  0.0000000 )
                  (  0.0000000  1.0000000  0.0000000 )
                  (  0.0000000  0.0000000  1.0000000 )


      isym =  2     120 deg rotation - cryst. axis [0,0,1]       

 cryst.   s( 2) = (     0          1          0      )
                  (    -1         -1          0      )
                  (     0          0          1      )

 cart.    s( 2) = ( -0.5000000 -0.8660254  0.0000000 )
                  (  0.8660254 -0.5000000  0.0000000 )
                  (  0.0000000  0.0000000  1.0000000 )


      isym =  3     120 deg rotation - cryst. axis [0,0,-1]      

 cryst.   s( 3) = (    -1         -1          0      )
                  (     1          0          0      )
                  (     0          0          1      )

 cart.    s( 3) = ( -0.5000000  0.8660254  0.0000000 )
                  ( -0.8660254 -0.5000000  0.0000000 )
                  (  0.0000000  0.0000000  1.0000000 )


      isym =  4     inv. 180 deg rotation - cart. axis [1,0,0]   

 cryst.   s( 4) = (    -1          0          0      )
                  (     1          1          0      )
                  (     0          0          1      )

 cart.    s( 4) = ( -1.0000000  0.0000000  0.0000000 )
                  (  0.0000000  1.0000000  0.0000000 )
                  (  0.0000000  0.0000000  1.0000000 )


      isym =  5     inv. 180 deg rotation - cryst. axis [0,1,0]  

 cryst.   s( 5) = (     1          1          0      )
                  (     0         -1          0      )
                  (     0          0          1      )

 cart.    s( 5) = (  0.5000000  0.8660254 -0.0000000 )
                  (  0.8660254 -0.5000000  0.0000000 )
                  (  0.0000000  0.0000000  1.0000000 )


      isym =  6     inv. 180 deg rotation - cryst. axis [1,1,0]  

 cryst.   s( 6) = (     0         -1          0      )
                  (    -1          0          0      )
                  (     0          0          1      )

 cart.    s( 6) = (  0.5000000 -0.8660254  0.0000000 )
                  ( -0.8660254 -0.5000000  0.0000000 )
                  (  0.0000000  0.0000000  1.0000000 )


   Cartesian axes

     site n.     atom                  positions (alat units)
         1           Se  tau(   1) = (   0.0000000   0.0000000   1.4353724  )
         2           Se  tau(   2) = (  -0.0000000   0.5773503   0.6676935  )
         3           Se  tau(   3) = (   0.5000000   0.2886751   3.5404837  )
         4           Se  tau(   4) = (   0.0000000   0.0000000   2.7727680  )
         5           Se  tau(   5) = (  -0.0000000   0.5773503   5.6455875  )
         6           Se  tau(   6) = (   0.5000000   0.2886751   4.8778471  )
         7           In  tau(   7) = (   0.5000000   0.2886751   1.7564068  )
         8           In  tau(   8) = (   0.0000000   0.0000000   0.3465144  )
         9           In  tau(   9) = (  -0.0000000   0.5773503   3.8615117  )
        10           In  tau(  10) = (   0.5000000   0.2886751   2.4515872  )
        11           In  tau(  11) = (   0.0000000   0.0000000   5.9666206  )
        12           In  tau(  12) = (  -0.0000000   0.5773503   4.5566755  )

   Crystallographic axes

     site n.     atom                  positions (cryst. coord.)
         1           Se  tau(   1) = (  0.0000000  0.0000000  0.2272855  )
         2           Se  tau(   2) = (  0.3333333  0.6666667  0.1057266  )
         3           Se  tau(   3) = (  0.6666667  0.3333333  0.5606215  )
         4           Se  tau(   4) = ( -0.0000000 -0.0000000  0.4390568  )
         5           Se  tau(   5) = (  0.3333333  0.6666667  0.8939564  )
         6           Se  tau(   6) = (  0.6666667  0.3333333  0.7723877  )
         7           In  tau(   7) = (  0.6666667  0.3333333  0.2781200  )
         8           In  tau(   8) = ( -0.0000000 -0.0000000  0.0548692  )
         9           In  tau(   9) = (  0.3333333  0.6666667  0.6114550  )
        10           In  tau(  10) = (  0.6666667  0.3333333  0.3881991  )
        11           In  tau(  11) = ( -0.0000000  0.0000000  0.9447907  )
        12           In  tau(  12) = (  0.3333333  0.6666667  0.7215315  )

     number of k points=   160
                       cart. coord. in units 2pi/alat
        k(    1) = (   0.0000000   0.0000000   0.0791730), wk =   0.0062500
        k(    2) = (   0.0000000   0.0213833   0.0791730), wk =   0.0062500
        k(    3) = (   0.0000000   0.0427667   0.0791730), wk =   0.0062500
        k(    4) = (   0.0000000   0.0641500   0.0791730), wk =   0.0062500
        k(    5) = (   0.0000000   0.0855334   0.0791730), wk =   0.0062500
        k(    6) = (   0.0000000   0.1069167   0.0791730), wk =   0.0062500
        k(    7) = (   0.0000000   0.1283001   0.0791730), wk =   0.0062500
        k(    8) = (   0.0000000   0.1496834   0.0791730), wk =   0.0062500
        k(    9) = (   0.0000000   0.1710667   0.0791730), wk =   0.0062500
        k(   10) = (   0.0000000   0.1924501   0.0791730), wk =   0.0062500
        k(   11) = (   0.0000000   0.2138334   0.0791730), wk =   0.0062500
        k(   12) = (   0.0000000   0.2352168   0.0791730), wk =   0.0062500
        k(   13) = (   0.0000000   0.2566001   0.0791730), wk =   0.0062500
        k(   14) = (   0.0000000   0.2779835   0.0791730), wk =   0.0062500
        k(   15) = (   0.0000000   0.2993668   0.0791730), wk =   0.0062500
        k(   16) = (   0.0000000   0.3207501   0.0791730), wk =   0.0062500
        k(   17) = (   0.0000000   0.3421335   0.0791730), wk =   0.0062500
        k(   18) = (   0.0000000   0.3635168   0.0791730), wk =   0.0062500
        k(   19) = (   0.0000000   0.3849002   0.0791730), wk =   0.0062500
        k(   20) = (   0.0000000   0.4062835   0.0791730), wk =   0.0062500
        k(   21) = (   0.0000000   0.4276669   0.0791730), wk =   0.0062500
        k(   22) = (   0.0000000   0.4490502   0.0791730), wk =   0.0062500
        k(   23) = (   0.0000000   0.4704336   0.0791730), wk =   0.0062500
        k(   24) = (   0.0000000   0.4918169   0.0791730), wk =   0.0062500
        k(   25) = (   0.0000000   0.5132002   0.0791730), wk =   0.0062500
        k(   26) = (   0.0000000   0.5345836   0.0791730), wk =   0.0062500
        k(   27) = (   0.0000000   0.5559669   0.0791730), wk =   0.0062500
        k(   28) = (   0.0000000   0.5773503   0.0791730), wk =   0.0062500
        k(   29) = (   0.0222220   0.5773499   0.0791730), wk =   0.0062500
        k(   30) = (   0.0444440   0.5773495   0.0791730), wk =   0.0062500
        k(   31) = (   0.0666660   0.5773491   0.0791730), wk =   0.0062500
        k(   32) = (   0.0888880   0.5773487   0.0791730), wk =   0.0062500
        k(   33) = (   0.1111100   0.5773483   0.0791730), wk =   0.0062500
        k(   34) = (   0.1333320   0.5773480   0.0791730), wk =   0.0062500
        k(   35) = (   0.1555540   0.5773476   0.0791730), wk =   0.0062500
        k(   36) = (   0.1777760   0.5773472   0.0791730), wk =   0.0062500
        k(   37) = (   0.1999980   0.5773468   0.0791730), wk =   0.0062500
        k(   38) = (   0.2222200   0.5773464   0.0791730), wk =   0.0062500
        k(   39) = (   0.2444420   0.5773460   0.0791730), wk =   0.0062500
        k(   40) = (   0.2666640   0.5773457   0.0791730), wk =   0.0062500
        k(   41) = (   0.2888860   0.5773453   0.0791730), wk =   0.0062500
        k(   42) = (   0.3111080   0.5773449   0.0791730), wk =   0.0062500
        k(   43) = (   0.3333300   0.5773445   0.0791730), wk =   0.0062500
        k(   44) = (   0.3225774   0.5587205   0.0791730), wk =   0.0062500
        k(   45) = (   0.3118248   0.5400965   0.0791730), wk =   0.0062500
        k(   46) = (   0.3010723   0.5214724   0.0791730), wk =   0.0062500
        k(   47) = (   0.2903197   0.5028484   0.0791730), wk =   0.0062500
        k(   48) = (   0.2795671   0.4842244   0.0791730), wk =   0.0062500
        k(   49) = (   0.2688145   0.4656004   0.0791730), wk =   0.0062500
        k(   50) = (   0.2580619   0.4469764   0.0791730), wk =   0.0062500
        k(   51) = (   0.2473094   0.4283524   0.0791730), wk =   0.0062500
        k(   52) = (   0.2365568   0.4097284   0.0791730), wk =   0.0062500
        k(   53) = (   0.2258042   0.3911043   0.0791730), wk =   0.0062500
        k(   54) = (   0.2150516   0.3724803   0.0791730), wk =   0.0062500
        k(   55) = (   0.2042990   0.3538563   0.0791730), wk =   0.0062500
        k(   56) = (   0.1935465   0.3352323   0.0791730), wk =   0.0062500
        k(   57) = (   0.1827939   0.3166083   0.0791730), wk =   0.0062500
        k(   58) = (   0.1720413   0.2979843   0.0791730), wk =   0.0062500
        k(   59) = (   0.1612887   0.2793602   0.0791730), wk =   0.0062500
        k(   60) = (   0.1505361   0.2607362   0.0791730), wk =   0.0062500
        k(   61) = (   0.1397835   0.2421122   0.0791730), wk =   0.0062500
        k(   62) = (   0.1290310   0.2234882   0.0791730), wk =   0.0062500
        k(   63) = (   0.1182784   0.2048642   0.0791730), wk =   0.0062500
        k(   64) = (   0.1075258   0.1862402   0.0791730), wk =   0.0062500
        k(   65) = (   0.0967732   0.1676161   0.0791730), wk =   0.0062500
        k(   66) = (   0.0860206   0.1489921   0.0791730), wk =   0.0062500
        k(   67) = (   0.0752681   0.1303681   0.0791730), wk =   0.0062500
        k(   68) = (   0.0645155   0.1117441   0.0791730), wk =   0.0062500
        k(   69) = (   0.0537629   0.0931201   0.0791730), wk =   0.0062500
        k(   70) = (   0.0430103   0.0744961   0.0791730), wk =   0.0062500
        k(   71) = (   0.0322577   0.0558720   0.0791730), wk =   0.0062500
        k(   72) = (   0.0215052   0.0372480   0.0791730), wk =   0.0062500
        k(   73) = (   0.0107526   0.0186240   0.0791730), wk =   0.0062500
        k(   74) = (   0.0000000   0.0000000   0.0791730), wk =   0.0062500
        k(   75) = (   0.0000000   0.0000000   0.0527820), wk =   0.0062500
        k(   76) = (   0.0000000   0.0000000   0.0263910), wk =   0.0062500
        k(   77) = (   0.0000000   0.0000000   0.0000000), wk =   0.0062500
        k(   78) = (   0.0000000   0.0213833  -0.0000000), wk =   0.0062500
        k(   79) = (   0.0000000   0.0427667  -0.0000000), wk =   0.0062500
        k(   80) = (   0.0000000   0.0641500  -0.0000000), wk =   0.0062500
        k(   81) = (   0.0000000   0.0855334  -0.0000000), wk =   0.0062500
        k(   82) = (   0.0000000   0.1069167  -0.0000000), wk =   0.0062500
        k(   83) = (   0.0000000   0.1283001  -0.0000000), wk =   0.0062500
        k(   84) = (   0.0000000   0.1496834  -0.0000000), wk =   0.0062500
        k(   85) = (   0.0000000   0.1710667  -0.0000000), wk =   0.0062500
        k(   86) = (   0.0000000   0.1924501  -0.0000000), wk =   0.0062500
        k(   87) = (   0.0000000   0.2138334  -0.0000000), wk =   0.0062500
        k(   88) = (   0.0000000   0.2352168  -0.0000000), wk =   0.0062500
        k(   89) = (   0.0000000   0.2566001  -0.0000000), wk =   0.0062500
        k(   90) = (   0.0000000   0.2779835  -0.0000000), wk =   0.0062500
        k(   91) = (   0.0000000   0.2993668  -0.0000000), wk =   0.0062500
        k(   92) = (   0.0000000   0.3207501  -0.0000000), wk =   0.0062500
        k(   93) = (   0.0000000   0.3421335  -0.0000000), wk =   0.0062500
        k(   94) = (   0.0000000   0.3635168  -0.0000000), wk =   0.0062500
        k(   95) = (   0.0000000   0.3849002  -0.0000000), wk =   0.0062500
        k(   96) = (   0.0000000   0.4062835  -0.0000000), wk =   0.0062500
        k(   97) = (   0.0000000   0.4276669  -0.0000000), wk =   0.0062500
        k(   98) = (   0.0000000   0.4490502  -0.0000000), wk =   0.0062500
        k(   99) = (   0.0000000   0.4704336  -0.0000000), wk =   0.0062500
        k(  100) = (   0.0000000   0.4918169  -0.0000000), wk =   0.0062500
        k(  101) = (   0.0000000   0.5132002  -0.0000000), wk =   0.0062500
        k(  102) = (   0.0000000   0.5345836  -0.0000000), wk =   0.0062500
        k(  103) = (   0.0000000   0.5559669  -0.0000000), wk =   0.0062500
        k(  104) = (   0.0000000   0.5773503  -0.0000000), wk =   0.0062500
        k(  105) = (   0.0222220   0.5773499  -0.0000000), wk =   0.0062500
        k(  106) = (   0.0444440   0.5773495  -0.0000000), wk =   0.0062500
        k(  107) = (   0.0666660   0.5773491  -0.0000000), wk =   0.0062500
        k(  108) = (   0.0888880   0.5773487  -0.0000000), wk =   0.0062500
        k(  109) = (   0.1111100   0.5773483  -0.0000000), wk =   0.0062500
        k(  110) = (   0.1333320   0.5773480  -0.0000000), wk =   0.0062500
        k(  111) = (   0.1555540   0.5773476  -0.0000000), wk =   0.0062500
        k(  112) = (   0.1777760   0.5773472  -0.0000000), wk =   0.0062500
        k(  113) = (   0.1999980   0.5773468  -0.0000000), wk =   0.0062500
        k(  114) = (   0.2222200   0.5773464  -0.0000000), wk =   0.0062500
        k(  115) = (   0.2444420   0.5773460  -0.0000000), wk =   0.0062500
        k(  116) = (   0.2666640   0.5773457  -0.0000000), wk =   0.0062500
        k(  117) = (   0.2888860   0.5773453  -0.0000000), wk =   0.0062500
        k(  118) = (   0.3111080   0.5773449  -0.0000000), wk =   0.0062500
        k(  119) = (   0.3333300   0.5773445  -0.0000000), wk =   0.0062500
        k(  120) = (   0.3225774   0.5587205  -0.0000000), wk =   0.0062500
        k(  121) = (   0.3118248   0.5400965  -0.0000000), wk =   0.0062500
        k(  122) = (   0.3010723   0.5214724  -0.0000000), wk =   0.0062500
        k(  123) = (   0.2903197   0.5028484  -0.0000000), wk =   0.0062500
        k(  124) = (   0.2795671   0.4842244  -0.0000000), wk =   0.0062500
        k(  125) = (   0.2688145   0.4656004  -0.0000000), wk =   0.0062500
        k(  126) = (   0.2580619   0.4469764  -0.0000000), wk =   0.0062500
        k(  127) = (   0.2473094   0.4283524  -0.0000000), wk =   0.0062500
        k(  128) = (   0.2365568   0.4097284  -0.0000000), wk =   0.0062500
        k(  129) = (   0.2258042   0.3911043  -0.0000000), wk =   0.0062500
        k(  130) = (   0.2150516   0.3724803  -0.0000000), wk =   0.0062500
        k(  131) = (   0.2042990   0.3538563  -0.0000000), wk =   0.0062500
        k(  132) = (   0.1935465   0.3352323  -0.0000000), wk =   0.0062500
        k(  133) = (   0.1827939   0.3166083  -0.0000000), wk =   0.0062500
        k(  134) = (   0.1720413   0.2979843  -0.0000000), wk =   0.0062500
        k(  135) = (   0.1612887   0.2793602  -0.0000000), wk =   0.0062500
        k(  136) = (   0.1505361   0.2607362  -0.0000000), wk =   0.0062500
        k(  137) = (   0.1397835   0.2421122  -0.0000000), wk =   0.0062500
        k(  138) = (   0.1290310   0.2234882  -0.0000000), wk =   0.0062500
        k(  139) = (   0.1182784   0.2048642  -0.0000000), wk =   0.0062500
        k(  140) = (   0.1075258   0.1862402  -0.0000000), wk =   0.0062500
        k(  141) = (   0.0967732   0.1676161  -0.0000000), wk =   0.0062500
        k(  142) = (   0.0860206   0.1489921  -0.0000000), wk =   0.0062500
        k(  143) = (   0.0752681   0.1303681  -0.0000000), wk =   0.0062500
        k(  144) = (   0.0645155   0.1117441  -0.0000000), wk =   0.0062500
        k(  145) = (   0.0537629   0.0931201  -0.0000000), wk =   0.0062500
        k(  146) = (   0.0430103   0.0744961  -0.0000000), wk =   0.0062500
        k(  147) = (   0.0322577   0.0558720  -0.0000000), wk =   0.0062500
        k(  148) = (   0.0215052   0.0372480  -0.0000000), wk =   0.0062500
        k(  149) = (   0.0107526   0.0186240  -0.0000000), wk =   0.0062500
        k(  150) = (   0.0000000   0.0000000   0.0000000), wk =   0.0062500
        k(  151) = (   0.0000000   0.5773503   0.0791730), wk =   0.0062500
        k(  152) = (   0.0000000   0.5773503   0.0593798), wk =   0.0062500
        k(  153) = (   0.0000000   0.5773503   0.0395865), wk =   0.0062500
        k(  154) = (   0.0000000   0.5773503   0.0197933), wk =   0.0062500
        k(  155) = (   0.0000000   0.5773503  -0.0000000), wk =   0.0062500
        k(  156) = (   0.3333300   0.5773445   0.0791730), wk =   0.0062500
        k(  157) = (   0.3333300   0.5773445   0.0593798), wk =   0.0062500
        k(  158) = (   0.3333300   0.5773445   0.0395865), wk =   0.0062500
        k(  159) = (   0.3333300   0.5773445   0.0197933), wk =   0.0062500
        k(  160) = (   0.3333300   0.5773445  -0.0000000), wk =   0.0062500

                       cryst. coord.
        k(    1) = (   0.0000000   0.0000000   0.5000000), wk =   0.0062500
        k(    2) = (   0.0000000   0.0185185   0.5000000), wk =   0.0062500
        k(    3) = (   0.0000000   0.0370370   0.5000000), wk =   0.0062500
        k(    4) = (   0.0000000   0.0555556   0.5000000), wk =   0.0062500
        k(    5) = (   0.0000000   0.0740741   0.5000000), wk =   0.0062500
        k(    6) = (   0.0000000   0.0925926   0.5000000), wk =   0.0062500
        k(    7) = (   0.0000000   0.1111111   0.5000000), wk =   0.0062500
        k(    8) = (   0.0000000   0.1296296   0.5000000), wk =   0.0062500
        k(    9) = (   0.0000000   0.1481481   0.5000000), wk =   0.0062500
        k(   10) = (   0.0000000   0.1666667   0.5000000), wk =   0.0062500
        k(   11) = (   0.0000000   0.1851852   0.5000000), wk =   0.0062500
        k(   12) = (   0.0000000   0.2037037   0.5000000), wk =   0.0062500
        k(   13) = (   0.0000000   0.2222222   0.5000000), wk =   0.0062500
        k(   14) = (   0.0000000   0.2407407   0.5000000), wk =   0.0062500
        k(   15) = (   0.0000000   0.2592593   0.5000000), wk =   0.0062500
        k(   16) = (   0.0000000   0.2777778   0.5000000), wk =   0.0062500
        k(   17) = (   0.0000000   0.2962963   0.5000000), wk =   0.0062500
        k(   18) = (   0.0000000   0.3148148   0.5000000), wk =   0.0062500
        k(   19) = (   0.0000000   0.3333333   0.5000000), wk =   0.0062500
        k(   20) = (   0.0000000   0.3518519   0.5000000), wk =   0.0062500
        k(   21) = (   0.0000000   0.3703704   0.5000000), wk =   0.0062500
        k(   22) = (   0.0000000   0.3888889   0.5000000), wk =   0.0062500
        k(   23) = (   0.0000000   0.4074074   0.5000000), wk =   0.0062500
        k(   24) = (   0.0000000   0.4259259   0.5000000), wk =   0.0062500
        k(   25) = (   0.0000000   0.4444444   0.5000000), wk =   0.0062500
        k(   26) = (   0.0000000   0.4629630   0.5000000), wk =   0.0062500
        k(   27) = (   0.0000000   0.4814815   0.5000000), wk =   0.0062500
        k(   28) = (   0.0000000   0.5000000   0.5000000), wk =   0.0062500
        k(   29) = (   0.0222220   0.4888887   0.5000000), wk =   0.0062500
        k(   30) = (   0.0444440   0.4777773   0.5000000), wk =   0.0062500
        k(   31) = (   0.0666660   0.4666660   0.5000000), wk =   0.0062500
        k(   32) = (   0.0888880   0.4555547   0.5000000), wk =   0.0062500
        k(   33) = (   0.1111100   0.4444433   0.5000000), wk =   0.0062500
        k(   34) = (   0.1333320   0.4333320   0.5000000), wk =   0.0062500
        k(   35) = (   0.1555540   0.4222207   0.5000000), wk =   0.0062500
        k(   36) = (   0.1777760   0.4111093   0.5000000), wk =   0.0062500
        k(   37) = (   0.1999980   0.3999980   0.5000000), wk =   0.0062500
        k(   38) = (   0.2222200   0.3888867   0.5000000), wk =   0.0062500
        k(   39) = (   0.2444420   0.3777753   0.5000000), wk =   0.0062500
        k(   40) = (   0.2666640   0.3666640   0.5000000), wk =   0.0062500
        k(   41) = (   0.2888860   0.3555527   0.5000000), wk =   0.0062500
        k(   42) = (   0.3111080   0.3444413   0.5000000), wk =   0.0062500
        k(   43) = (   0.3333300   0.3333300   0.5000000), wk =   0.0062500
        k(   44) = (   0.3225774   0.3225774   0.5000000), wk =   0.0062500
        k(   45) = (   0.3118248   0.3118248   0.5000000), wk =   0.0062500
        k(   46) = (   0.3010723   0.3010723   0.5000000), wk =   0.0062500
        k(   47) = (   0.2903197   0.2903197   0.5000000), wk =   0.0062500
        k(   48) = (   0.2795671   0.2795671   0.5000000), wk =   0.0062500
        k(   49) = (   0.2688145   0.2688145   0.5000000), wk =   0.0062500
        k(   50) = (   0.2580619   0.2580619   0.5000000), wk =   0.0062500
        k(   51) = (   0.2473094   0.2473094   0.5000000), wk =   0.0062500
        k(   52) = (   0.2365568   0.2365568   0.5000000), wk =   0.0062500
        k(   53) = (   0.2258042   0.2258042   0.5000000), wk =   0.0062500
        k(   54) = (   0.2150516   0.2150516   0.5000000), wk =   0.0062500
        k(   55) = (   0.2042990   0.2042990   0.5000000), wk =   0.0062500
        k(   56) = (   0.1935465   0.1935465   0.5000000), wk =   0.0062500
        k(   57) = (   0.1827939   0.1827939   0.5000000), wk =   0.0062500
        k(   58) = (   0.1720413   0.1720413   0.5000000), wk =   0.0062500
        k(   59) = (   0.1612887   0.1612887   0.5000000), wk =   0.0062500
        k(   60) = (   0.1505361   0.1505361   0.5000000), wk =   0.0062500
        k(   61) = (   0.1397835   0.1397835   0.5000000), wk =   0.0062500
        k(   62) = (   0.1290310   0.1290310   0.5000000), wk =   0.0062500
        k(   63) = (   0.1182784   0.1182784   0.5000000), wk =   0.0062500
        k(   64) = (   0.1075258   0.1075258   0.5000000), wk =   0.0062500
        k(   65) = (   0.0967732   0.0967732   0.5000000), wk =   0.0062500
        k(   66) = (   0.0860206   0.0860206   0.5000000), wk =   0.0062500
        k(   67) = (   0.0752681   0.0752681   0.5000000), wk =   0.0062500
        k(   68) = (   0.0645155   0.0645155   0.5000000), wk =   0.0062500
        k(   69) = (   0.0537629   0.0537629   0.5000000), wk =   0.0062500
        k(   70) = (   0.0430103   0.0430103   0.5000000), wk =   0.0062500
        k(   71) = (   0.0322577   0.0322577   0.5000000), wk =   0.0062500
        k(   72) = (   0.0215052   0.0215052   0.5000000), wk =   0.0062500
        k(   73) = (   0.0107526   0.0107526   0.5000000), wk =   0.0062500
        k(   74) = (   0.0000000   0.0000000   0.5000000), wk =   0.0062500
        k(   75) = (   0.0000000   0.0000000   0.3333333), wk =   0.0062500
        k(   76) = (   0.0000000   0.0000000   0.1666667), wk =   0.0062500
        k(   77) = (   0.0000000   0.0000000   0.0000000), wk =   0.0062500
        k(   78) = (   0.0000000   0.0185185   0.0000000), wk =   0.0062500
        k(   79) = (   0.0000000   0.0370370   0.0000000), wk =   0.0062500
        k(   80) = (   0.0000000   0.0555556   0.0000000), wk =   0.0062500
        k(   81) = (   0.0000000   0.0740741   0.0000000), wk =   0.0062500
        k(   82) = (   0.0000000   0.0925926   0.0000000), wk =   0.0062500
        k(   83) = (   0.0000000   0.1111111   0.0000000), wk =   0.0062500
        k(   84) = (   0.0000000   0.1296296   0.0000000), wk =   0.0062500
        k(   85) = (   0.0000000   0.1481481   0.0000000), wk =   0.0062500
        k(   86) = (   0.0000000   0.1666667  -0.0000000), wk =   0.0062500
        k(   87) = (   0.0000000   0.1851852   0.0000000), wk =   0.0062500
        k(   88) = (   0.0000000   0.2037037   0.0000000), wk =   0.0062500
        k(   89) = (   0.0000000   0.2222222   0.0000000), wk =   0.0062500
        k(   90) = (   0.0000000   0.2407407   0.0000000), wk =   0.0062500
        k(   91) = (   0.0000000   0.2592593   0.0000000), wk =   0.0062500
        k(   92) = (   0.0000000   0.2777778   0.0000000), wk =   0.0062500
        k(   93) = (   0.0000000   0.2962963   0.0000000), wk =   0.0062500
        k(   94) = (   0.0000000   0.3148148   0.0000000), wk =   0.0062500
        k(   95) = (   0.0000000   0.3333333   0.0000000), wk =   0.0062500
        k(   96) = (   0.0000000   0.3518519   0.0000000), wk =   0.0062500
        k(   97) = (   0.0000000   0.3703704   0.0000000), wk =   0.0062500
        k(   98) = (   0.0000000   0.3888889   0.0000000), wk =   0.0062500
        k(   99) = (   0.0000000   0.4074074   0.0000000), wk =   0.0062500
        k(  100) = (   0.0000000   0.4259259   0.0000000), wk =   0.0062500
        k(  101) = (   0.0000000   0.4444444   0.0000000), wk =   0.0062500
        k(  102) = (   0.0000000   0.4629630  -0.0000000), wk =   0.0062500
        k(  103) = (   0.0000000   0.4814815   0.0000000), wk =   0.0062500
        k(  104) = (   0.0000000   0.5000000   0.0000000), wk =   0.0062500
        k(  105) = (   0.0222220   0.4888887   0.0000000), wk =   0.0062500
        k(  106) = (   0.0444440   0.4777773   0.0000000), wk =   0.0062500
        k(  107) = (   0.0666660   0.4666660   0.0000000), wk =   0.0062500
        k(  108) = (   0.0888880   0.4555547   0.0000000), wk =   0.0062500
        k(  109) = (   0.1111100   0.4444433  -0.0000000), wk =   0.0062500
        k(  110) = (   0.1333320   0.4333320   0.0000000), wk =   0.0062500
        k(  111) = (   0.1555540   0.4222207   0.0000000), wk =   0.0062500
        k(  112) = (   0.1777760   0.4111093   0.0000000), wk =   0.0062500
        k(  113) = (   0.1999980   0.3999980   0.0000000), wk =   0.0062500
        k(  114) = (   0.2222200   0.3888867   0.0000000), wk =   0.0062500
        k(  115) = (   0.2444420   0.3777753  -0.0000000), wk =   0.0062500
        k(  116) = (   0.2666640   0.3666640   0.0000000), wk =   0.0062500
        k(  117) = (   0.2888860   0.3555527  -0.0000000), wk =   0.0062500
        k(  118) = (   0.3111080   0.3444413   0.0000000), wk =   0.0062500
        k(  119) = (   0.3333300   0.3333300   0.0000000), wk =   0.0062500
        k(  120) = (   0.3225774   0.3225774  -0.0000000), wk =   0.0062500
        k(  121) = (   0.3118248   0.3118248   0.0000000), wk =   0.0062500
        k(  122) = (   0.3010723   0.3010723   0.0000000), wk =   0.0062500
        k(  123) = (   0.2903197   0.2903197   0.0000000), wk =   0.0062500
        k(  124) = (   0.2795671   0.2795671   0.0000000), wk =   0.0062500
        k(  125) = (   0.2688145   0.2688145   0.0000000), wk =   0.0062500
        k(  126) = (   0.2580619   0.2580619   0.0000000), wk =   0.0062500
        k(  127) = (   0.2473094   0.2473094   0.0000000), wk =   0.0062500
        k(  128) = (   0.2365568   0.2365568   0.0000000), wk =   0.0062500
        k(  129) = (   0.2258042   0.2258042   0.0000000), wk =   0.0062500
        k(  130) = (   0.2150516   0.2150516   0.0000000), wk =   0.0062500
        k(  131) = (   0.2042990   0.2042990   0.0000000), wk =   0.0062500
        k(  132) = (   0.1935465   0.1935465   0.0000000), wk =   0.0062500
        k(  133) = (   0.1827939   0.1827939   0.0000000), wk =   0.0062500
        k(  134) = (   0.1720413   0.1720413   0.0000000), wk =   0.0062500
        k(  135) = (   0.1612887   0.1612887  -0.0000000), wk =   0.0062500
        k(  136) = (   0.1505361   0.1505361   0.0000000), wk =   0.0062500
        k(  137) = (   0.1397835   0.1397835   0.0000000), wk =   0.0062500
        k(  138) = (   0.1290310   0.1290310  -0.0000000), wk =   0.0062500
        k(  139) = (   0.1182784   0.1182784   0.0000000), wk =   0.0062500
        k(  140) = (   0.1075258   0.1075258   0.0000000), wk =   0.0062500
        k(  141) = (   0.0967732   0.0967732   0.0000000), wk =   0.0062500
        k(  142) = (   0.0860206   0.0860206   0.0000000), wk =   0.0062500
        k(  143) = (   0.0752681   0.0752681   0.0000000), wk =   0.0062500
        k(  144) = (   0.0645155   0.0645155   0.0000000), wk =   0.0062500
        k(  145) = (   0.0537629   0.0537629   0.0000000), wk =   0.0062500
        k(  146) = (   0.0430103   0.0430103   0.0000000), wk =   0.0062500
        k(  147) = (   0.0322577   0.0322577  -0.0000000), wk =   0.0062500
        k(  148) = (   0.0215052   0.0215052   0.0000000), wk =   0.0062500
        k(  149) = (   0.0107526   0.0107526   0.0000000), wk =   0.0062500
        k(  150) = (   0.0000000   0.0000000   0.0000000), wk =   0.0062500
        k(  151) = (   0.0000000   0.5000000   0.5000000), wk =   0.0062500
        k(  152) = (   0.0000000   0.5000000   0.3750000), wk =   0.0062500
        k(  153) = (   0.0000000   0.5000000   0.2500000), wk =   0.0062500
        k(  154) = (   0.0000000   0.5000000   0.1250000), wk =   0.0062500
        k(  155) = (   0.0000000   0.5000000   0.0000000), wk =   0.0062500
        k(  156) = (   0.3333300   0.3333300   0.5000000), wk =   0.0062500
        k(  157) = (   0.3333300   0.3333300   0.3750000), wk =   0.0062500
        k(  158) = (   0.3333300   0.3333300   0.2500000), wk =   0.0062500
        k(  159) = (   0.3333300   0.3333300   0.1250000), wk =   0.0062500
        k(  160) = (   0.3333300   0.3333300   0.0000000), wk =   0.0062500

     Dense  grid:   596901 G-vectors     FFT dimensions: (  60,  60, 375)

     Estimated max dynamical RAM per process >      48.09MB

     Estimated total allocated dynamical RAM >    2308.25MB

     The potential is recalculated from file :
     /share/inl/marcel/TB-SO/InSegamma_outdir/InSegamma.save/charge-density.dat

     Starting wfc are  156 randomized atomic wfcs

     Band Structure Calculation
     Davidson diagonalization with overlap

     Computing kpt #:     1
     total cpu time spent up to now is       15.1 secs

     Computing kpt #:     2
     total cpu time spent up to now is       28.3 secs

     Computing kpt #:     3
     total cpu time spent up to now is       41.7 secs

     Computing kpt #:     4
     total cpu time spent up to now is       54.6 secs

     Computing kpt #:     5
     total cpu time spent up to now is       67.5 secs

     Computing kpt #:     6
     total cpu time spent up to now is       80.4 secs

     Computing kpt #:     7
     total cpu time spent up to now is       93.5 secs

     Computing kpt #:     8
     total cpu time spent up to now is      106.6 secs

     Computing kpt #:     9
     total cpu time spent up to now is      121.3 secs

     Computing kpt #:    10
     total cpu time spent up to now is      135.6 secs

     Computing kpt #:    11
     total cpu time spent up to now is      149.9 secs

     Computing kpt #:    12
     total cpu time spent up to now is      164.4 secs

     Computing kpt #:    13
     total cpu time spent up to now is      179.2 secs

     Computing kpt #:    14
     total cpu time spent up to now is      194.0 secs

     Computing kpt #:    15
     total cpu time spent up to now is      208.6 secs

     Computing kpt #:    16
     total cpu time spent up to now is      223.5 secs

     Computing kpt #:    17
     total cpu time spent up to now is      238.2 secs

     Computing kpt #:    18
     total cpu time spent up to now is      253.1 secs

     Computing kpt #:    19
     total cpu time spent up to now is      267.9 secs

     Computing kpt #:    20
     total cpu time spent up to now is      282.7 secs

     Computing kpt #:    21
     total cpu time spent up to now is      297.5 secs

     Computing kpt #:    22
     total cpu time spent up to now is      312.3 secs

     Computing kpt #:    23
     total cpu time spent up to now is      326.7 secs

     Computing kpt #:    24
     total cpu time spent up to now is      341.6 secs

     Computing kpt #:    25
     total cpu time spent up to now is      355.7 secs

     Computing kpt #:    26
     total cpu time spent up to now is      370.0 secs

     Computing kpt #:    27
     total cpu time spent up to now is      384.2 secs

     Computing kpt #:    28
     total cpu time spent up to now is      398.7 secs

     Computing kpt #:    29
     total cpu time spent up to now is      413.0 secs

     Computing kpt #:    30
     total cpu time spent up to now is      427.1 secs

     Computing kpt #:    31
     total cpu time spent up to now is      441.6 secs

     Computing kpt #:    32
     total cpu time spent up to now is      456.0 secs

     Computing kpt #:    33
     total cpu time spent up to now is      470.3 secs

     Computing kpt #:    34
     total cpu time spent up to now is      484.6 secs

     Computing kpt #:    35
     total cpu time spent up to now is      498.9 secs

     Computing kpt #:    36
     total cpu time spent up to now is      513.1 secs

     Computing kpt #:    37
     total cpu time spent up to now is      527.5 secs

     Computing kpt #:    38
     total cpu time spent up to now is      542.3 secs

     Computing kpt #:    39
     total cpu time spent up to now is      557.0 secs

     Computing kpt #:    40
     total cpu time spent up to now is      571.7 secs

     Computing kpt #:    41
     total cpu time spent up to now is      585.8 secs

     Computing kpt #:    42
     total cpu time spent up to now is      599.9 secs

     Computing kpt #:    43
     total cpu time spent up to now is      614.0 secs

     Computing kpt #:    44
     total cpu time spent up to now is      628.0 secs

     Computing kpt #:    45
     total cpu time spent up to now is      642.2 secs

     Computing kpt #:    46
     total cpu time spent up to now is      656.4 secs

     Computing kpt #:    47
     total cpu time spent up to now is      671.3 secs

     Computing kpt #:    48
     total cpu time spent up to now is      685.6 secs

     Computing kpt #:    49
     total cpu time spent up to now is      699.8 secs

     Computing kpt #:    50
     total cpu time spent up to now is      714.3 secs

     Computing kpt #:    51
     total cpu time spent up to now is      729.0 secs

     Computing kpt #:    52
     total cpu time spent up to now is      743.8 secs

     Computing kpt #:    53
     total cpu time spent up to now is      758.2 secs

     Computing kpt #:    54
     total cpu time spent up to now is      772.6 secs

     Computing kpt #:    55
     total cpu time spent up to now is      787.1 secs

     Computing kpt #:    56
     total cpu time spent up to now is      802.0 secs

     Computing kpt #:    57
     total cpu time spent up to now is      817.5 secs

     Computing kpt #:    58
     total cpu time spent up to now is      832.0 secs

     Computing kpt #:    59
     total cpu time spent up to now is      847.2 secs

     Computing kpt #:    60
     total cpu time spent up to now is      861.8 secs

     Computing kpt #:    61
     total cpu time spent up to now is      876.2 secs

     Computing kpt #:    62
     total cpu time spent up to now is      890.8 secs

     Computing kpt #:    63
     total cpu time spent up to now is      906.9 secs

     Computing kpt #:    64
     total cpu time spent up to now is      921.9 secs

     Computing kpt #:    65
     total cpu time spent up to now is      935.3 secs

     Computing kpt #:    66
     total cpu time spent up to now is      950.0 secs

     Computing kpt #:    67
     total cpu time spent up to now is      964.3 secs

     Computing kpt #:    68
     total cpu time spent up to now is      977.8 secs

     Computing kpt #:    69
     total cpu time spent up to now is      990.7 secs

     Computing kpt #:    70
     total cpu time spent up to now is     1003.9 secs

     Computing kpt #:    71
     total cpu time spent up to now is     1017.0 secs

     Computing kpt #:    72
     total cpu time spent up to now is     1030.3 secs

     Computing kpt #:    73
     total cpu time spent up to now is     1043.5 secs

     Computing kpt #:    74
     total cpu time spent up to now is     1057.1 secs

     Computing kpt #:    75
     total cpu time spent up to now is     1070.3 secs

     Computing kpt #:    76
     total cpu time spent up to now is     1084.8 secs

     Computing kpt #:    77
     total cpu time spent up to now is     1099.3 secs

     Computing kpt #:    78
     total cpu time spent up to now is     1112.7 secs

     Computing kpt #:    79
     total cpu time spent up to now is     1126.0 secs

     Computing kpt #:    80
     total cpu time spent up to now is     1140.4 secs

     Computing kpt #:    81
     total cpu time spent up to now is     1154.7 secs

     Computing kpt #:    82
     total cpu time spent up to now is     1168.1 secs

     Computing kpt #:    83
     total cpu time spent up to now is     1181.4 secs

     Computing kpt #:    84
     total cpu time spent up to now is     1196.2 secs

     Computing kpt #:    85
     total cpu time spent up to now is     1210.9 secs

     Computing kpt #:    86
     total cpu time spent up to now is     1225.7 secs

     Computing kpt #:    87
     total cpu time spent up to now is     1240.5 secs

     Computing kpt #:    88
     total cpu time spent up to now is     1255.2 secs

     Computing kpt #:    89
     total cpu time spent up to now is     1270.0 secs

     Computing kpt #:    90
     total cpu time spent up to now is     1285.0 secs

     Computing kpt #:    91
     total cpu time spent up to now is     1300.1 secs

     Computing kpt #:    92
     total cpu time spent up to now is     1314.9 secs

     Computing kpt #:    93
     total cpu time spent up to now is     1329.8 secs

     Computing kpt #:    94
     total cpu time spent up to now is     1344.7 secs

     Computing kpt #:    95
     total cpu time spent up to now is     1359.7 secs

     Computing kpt #:    96
     total cpu time spent up to now is     1374.5 secs

     Computing kpt #:    97
     total cpu time spent up to now is     1389.1 secs

     Computing kpt #:    98
     total cpu time spent up to now is     1403.9 secs

     Computing kpt #:    99
     total cpu time spent up to now is     1418.0 secs

     Computing kpt #:   100
     total cpu time spent up to now is     1432.5 secs

     Computing kpt #:   101
     total cpu time spent up to now is     1446.9 secs

     Computing kpt #:   102
     total cpu time spent up to now is     1461.2 secs

     Computing kpt #:   103
     total cpu time spent up to now is     1475.4 secs

     Computing kpt #:   104
     total cpu time spent up to now is     1489.9 secs

     Computing kpt #:   105
     total cpu time spent up to now is     1504.1 secs

     Computing kpt #:   106
     total cpu time spent up to now is     1518.3 secs

     Computing kpt #:   107
     total cpu time spent up to now is     1532.6 secs

     Computing kpt #:   108
     total cpu time spent up to now is     1547.1 secs

     Computing kpt #:   109
     total cpu time spent up to now is     1561.6 secs

     Computing kpt #:   110
     total cpu time spent up to now is     1576.0 secs

     Computing kpt #:   111
     total cpu time spent up to now is     1590.2 secs

     Computing kpt #:   112
     total cpu time spent up to now is     1604.5 secs

     Computing kpt #:   113
     total cpu time spent up to now is     1618.6 secs

     Computing kpt #:   114
     total cpu time spent up to now is     1633.8 secs

     Computing kpt #:   115
     total cpu time spent up to now is     1648.1 secs

     Computing kpt #:   116
     total cpu time spent up to now is     1662.2 secs

     Computing kpt #:   117
     total cpu time spent up to now is     1676.3 secs

     Computing kpt #:   118
     total cpu time spent up to now is     1690.3 secs

     Computing kpt #:   119
     total cpu time spent up to now is     1705.0 secs

     Computing kpt #:   120
     total cpu time spent up to now is     1718.9 secs

     Computing kpt #:   121
     total cpu time spent up to now is     1732.8 secs

     Computing kpt #:   122
     total cpu time spent up to now is     1746.6 secs

     Computing kpt #:   123
     total cpu time spent up to now is     1760.7 secs

     Computing kpt #:   124
     total cpu time spent up to now is     1774.8 secs

     Computing kpt #:   125
     total cpu time spent up to now is     1788.9 secs

     Computing kpt #:   126
     total cpu time spent up to now is     1803.2 secs

     Computing kpt #:   127
     total cpu time spent up to now is     1817.2 secs

     Computing kpt #:   128
     total cpu time spent up to now is     1831.4 secs

     Computing kpt #:   129
     total cpu time spent up to now is     1845.5 secs

     Computing kpt #:   130
     total cpu time spent up to now is     1859.9 secs

     Computing kpt #:   131
     total cpu time spent up to now is     1874.6 secs

     Computing kpt #:   132
     total cpu time spent up to now is     1893.3 secs

     Computing kpt #:   133
     total cpu time spent up to now is     1908.3 secs

     Computing kpt #:   134
     total cpu time spent up to now is     1923.0 secs

     Computing kpt #:   135
     total cpu time spent up to now is     1937.3 secs

     Computing kpt #:   136
     total cpu time spent up to now is     1951.5 secs

     Computing kpt #:   137
     total cpu time spent up to now is     1966.1 secs

     Computing kpt #:   138
     total cpu time spent up to now is     1980.3 secs

     Computing kpt #:   139
     total cpu time spent up to now is     1994.5 secs

     Computing kpt #:   140
     total cpu time spent up to now is     2007.5 secs

     Computing kpt #:   141
     total cpu time spent up to now is     2020.6 secs

     Computing kpt #:   142
     total cpu time spent up to now is     2033.3 secs

     Computing kpt #:   143
     total cpu time spent up to now is     2046.4 secs

     Computing kpt #:   144
     total cpu time spent up to now is     2059.4 secs

     Computing kpt #:   145
     total cpu time spent up to now is     2072.7 secs

     Computing kpt #:   146
     total cpu time spent up to now is     2085.8 secs

     Computing kpt #:   147
     total cpu time spent up to now is     2098.5 secs

     Computing kpt #:   148
     total cpu time spent up to now is     2112.6 secs

     Computing kpt #:   149
     total cpu time spent up to now is     2126.8 secs

     Computing kpt #:   150
     total cpu time spent up to now is     2139.9 secs

     Computing kpt #:   151
     total cpu time spent up to now is     2154.0 secs

     Computing kpt #:   152
     total cpu time spent up to now is     2168.1 secs

     Computing kpt #:   153
     total cpu time spent up to now is     2182.6 secs

     Computing kpt #:   154
     total cpu time spent up to now is     2196.8 secs

     Computing kpt #:   155
     total cpu time spent up to now is     2210.8 secs

     Computing kpt #:   156
     total cpu time spent up to now is     2224.6 secs

     Computing kpt #:   157
     total cpu time spent up to now is     2238.3 secs

     Computing kpt #:   158
     total cpu time spent up to now is     2252.1 secs

     Computing kpt #:   159
     total cpu time spent up to now is     2265.9 secs

     Computing kpt #:   160
     total cpu time spent up to now is     2279.7 secs

     ethr =  6.14E-13,  avg # of iterations = 23.1

     total cpu time spent up to now is     2279.7 secs

     End of band structure calculation

          k = 0.0000 0.0000 0.0792 ( 74624 PWs)   bands (ev):

    -8.3321  -8.3321  -8.3318  -8.3318  -8.3317  -8.3317  -8.2592  -8.2592
    -8.2589  -8.2589  -8.2589  -8.2589  -8.2428  -8.2428  -8.2425  -8.2425
    -8.2425  -8.2425  -8.2312  -8.2312  -8.2309  -8.2309  -8.2307  -8.2307
    -7.4905  -7.4905  -7.4903  -7.4903  -7.4893  -7.4893  -7.4580  -7.4580
    -7.4577  -7.4577  -7.4576  -7.4576  -7.4350  -7.4350  -7.4343  -7.4343
    -7.4341  -7.4341  -7.3762  -7.3762  -7.3760  -7.3760  -7.3758  -7.3758
    -7.3413  -7.3413  -7.3302  -7.3302  -7.3301  -7.3301  -7.2735  -7.2735
    -7.2732  -7.2732  -7.2732  -7.2732  -6.8190  -6.8190  -6.8190  -6.8190
    -6.6891  -6.6891  -6.5942  -6.5942  -6.4632  -6.4632  -6.4631  -6.4631
     0.3284   0.3284   0.3286   0.3286   0.5916   0.5916   2.2679   2.2679
     2.8913   2.8913   2.8914   2.8914   5.1005   5.1005   5.1005   5.1005
     5.1279   5.1279   5.2595   5.2595   5.2596   5.2596   5.3345   5.3345
     5.4157   5.4157   5.4602   5.4602   5.4627   5.4627   5.4790   5.4790
     5.4790   5.4790   5.6079   5.6079   5.6105   5.6105   5.6602   5.6602
     6.6007   6.6007   6.9124   6.9124   7.9749   7.9749   7.9751   7.9751

          k = 0.0000 0.0214 0.0792 ( 74578 PWs)   bands (ev):

    -8.3323  -8.3323  -8.3320  -8.3320  -8.3320  -8.3319  -8.2594  -8.2594
    -8.2591  -8.2591  -8.2591  -8.2591  -8.2432  -8.2432  -8.2429  -8.2429
    -8.2429  -8.2429  -8.2310  -8.2309  -8.2307  -8.2307  -8.2306  -8.2306
    -7.4926  -7.4925  -7.4923  -7.4923  -7.4918  -7.4915  -7.4586  -7.4586
    -7.4583  -7.4583  -7.4582  -7.4582  -7.4347  -7.4347  -7.4342  -7.4342
    -7.4340  -7.4340  -7.3765  -7.3765  -7.3762  -7.3762  -7.3762  -7.3761
    -7.3404  -7.3403  -7.3298  -7.3298  -7.3295  -7.3295  -7.2732  -7.2732
    -7.2730  -7.2730  -7.2729  -7.2729  -6.8149  -6.8147  -6.8147  -6.8146
    -6.6856  -6.6854  -6.5902  -6.5901  -6.4596  -6.4596  -6.4595  -6.4595
     0.3307   0.3307   0.3309   0.3309   0.5929   0.5929   2.2697   2.2697
     2.8887   2.8887   2.8888   2.8888   5.0827   5.0832   5.0837   5.0845
     5.1156   5.1159   5.2365   5.2368   5.2385   5.2387   5.3121   5.3135
     5.4039   5.4040   5.4438   5.4450   5.4472   5.4484   5.4708   5.4723
     5.4733   5.4735   5.6237   5.6246   5.6257   5.6266   5.6358   5.6360
     6.5926   6.6017   6.9486   6.9567   7.9885   7.9892   7.9904   7.9906

          k = 0.0000 0.0428 0.0792 ( 74572 PWs)   bands (ev):

    -8.3330  -8.3329  -8.3327  -8.3326  -8.3326  -8.3325  -8.2602  -8.2602
    -8.2599  -8.2599  -8.2598  -8.2598  -8.2445  -8.2445  -8.2442  -8.2442
    -8.2441  -8.2441  -8.2305  -8.2304  -8.2302  -8.2301  -8.2301  -8.2301
    -7.4987  -7.4984  -7.4984  -7.4981  -7.4981  -7.4979  -7.4602  -7.4602
    -7.4599  -7.4599  -7.4596  -7.4596  -7.4343  -7.4343  -7.4340  -7.4340
    -7.4339  -7.4339  -7.3774  -7.3773  -7.3770  -7.3769  -7.3768  -7.3768
    -7.3380  -7.3378  -7.3289  -7.3288  -7.3280  -7.3279  -7.2723  -7.2723
    -7.2721  -7.2721  -7.2719  -7.2719  -6.8024  -6.8021  -6.8018  -6.8015
    -6.6748  -6.6744  -6.5784  -6.5781  -6.4492  -6.4491  -6.4489  -6.4487
     0.3376   0.3376   0.3378   0.3378   0.5967   0.5967   2.2749   2.2749
     2.8806   2.8807   2.8810   2.8812   5.0258   5.0269   5.0303   5.0326
     5.0774   5.0779   5.1780   5.1811   5.1821   5.1851   5.2433   5.2457
     5.3697   5.3706   5.4071   5.4078   5.4170   5.4177   5.4500   5.4517
     5.4546   5.4547   5.5802   5.5813   5.6561   5.6570   5.6600   5.6608
     6.5821   6.5946   7.0538   7.0650   8.0280   8.0319   8.0322   8.0340

          k = 0.0000 0.0642 0.0792 ( 74560 PWs)   bands (ev):

    -8.3341  -8.3339  -8.3337  -8.3336  -8.3336  -8.3336  -8.2613  -8.2613
    -8.2611  -8.2611  -8.2609  -8.2609  -8.2464  -8.2464  -8.2462  -8.2461
    -8.2460  -8.2460  -8.2299  -8.2299  -8.2296  -8.2296  -8.2296  -8.2295
    -7.5087  -7.5080  -7.5076  -7.5074  -7.5068  -7.5066  -7.4625  -7.4625
    -7.4620  -7.4620  -7.4618  -7.4618  -7.4347  -7.4346  -7.4342  -7.4342
    -7.4339  -7.4339  -7.3785  -7.3783  -7.3777  -7.3776  -7.3774  -7.3774
    -7.3349  -7.3348  -7.3277  -7.3276  -7.3260  -7.3260  -7.2708  -7.2708
    -7.2705  -7.2705  -7.2703  -7.2703  -6.7819  -6.7816  -6.7806  -6.7803
    -6.6569  -6.6563  -6.5590  -6.5585  -6.4319  -6.4318  -6.4313  -6.4311
     0.3488   0.3489   0.3492   0.3492   0.6028   0.6029   2.2833   2.2833
     2.8662   2.8664   2.8677   2.8680   4.9256   4.9259   4.9373   4.9400
     5.0086   5.0095   5.1000   5.1031   5.1147   5.1176   5.1270   5.1298
     5.3191   5.3205   5.3619   5.3626   5.3693   5.3712   5.4268   5.4271
     5.4278   5.4280   5.5233   5.5255   5.6896   5.6898   5.6960   5.6963
     6.5693   6.5819   7.2008   7.2122   8.0869   8.0937   8.0984   8.1005

          k = 0.0000 0.0855 0.0792 ( 74558 PWs)   bands (ev):

    -8.3356  -8.3354  -8.3352  -8.3351  -8.3350  -8.3350  -8.2629  -8.2629
    -8.2626  -8.2626  -8.2624  -8.2624  -8.2489  -8.2489  -8.2485  -8.2485
    -8.2483  -8.2483  -8.2294  -8.2294  -8.2291  -8.2291  -8.2290  -8.2289
    -7.5208  -7.5200  -7.5190  -7.5187  -7.5175  -7.5174  -7.4655  -7.4654
    -7.4649  -7.4648  -7.4645  -7.4645  -7.4356  -7.4356  -7.4350  -7.4350
    -7.4345  -7.4344  -7.3793  -7.3790  -7.3782  -7.3782  -7.3779  -7.3778
    -7.3320  -7.3318  -7.3265  -7.3264  -7.3242  -7.3242  -7.2687  -7.2687
    -7.2684  -7.2684  -7.2681  -7.2681  -6.7539  -6.7535  -6.7518  -6.7515
    -6.6320  -6.6312  -6.5326  -6.5320  -6.4082  -6.4080  -6.4072  -6.4069
     0.3642   0.3643   0.3649   0.3650   0.6110   0.6111   2.2945   2.2946
     2.8444   2.8447   2.8480   2.8485   4.7897   4.7902   4.8072   4.8094
     4.9017   4.9029   4.9796   4.9827   5.0127   5.0148   5.0388   5.0414
     5.2611   5.2626   5.3100   5.3124   5.3131   5.3134   5.3933   5.3937
     5.4027   5.4039   5.4754   5.4780   5.7188   5.7199   5.7258   5.7271
     6.5521   6.5638   7.3683   7.3788   8.1572   8.1670   8.1812   8.1828

          k = 0.0000 0.1069 0.0792 ( 74532 PWs)   bands (ev):

    -8.3376  -8.3373  -8.3371  -8.3370  -8.3369  -8.3369  -8.2649  -8.2648
    -8.2645  -8.2644  -8.2641  -8.2641  -8.2520  -8.2519  -8.2513  -8.2513
    -8.2511  -8.2510  -8.2290  -8.2290  -8.2288  -8.2287  -8.2286  -8.2285
    -7.5341  -7.5333  -7.5316  -7.5312  -7.5295  -7.5293  -7.4691  -7.4690
    -7.4687  -7.4687  -7.4678  -7.4678  -7.4370  -7.4370  -7.4362  -7.4361
    -7.4355  -7.4355  -7.3796  -7.3793  -7.3785  -7.3785  -7.3781  -7.3780
    -7.3296  -7.3294  -7.3255  -7.3255  -7.3229  -7.3228  -7.2660  -7.2660
    -7.2657  -7.2656  -7.2653  -7.2652  -6.7191  -6.7185  -6.7161  -6.7158
    -6.6004  -6.5995  -6.4998  -6.4991  -6.3784  -6.3782  -6.3770  -6.3766
     0.3833   0.3835   0.3846   0.3848   0.6207   0.6208   2.3080   2.3081
     2.8137   2.8142   2.8209   2.8217   4.6309   4.6320   4.6500   4.6515
     4.7468   4.7484   4.8312   4.8343   4.9188   4.9199   4.9536   4.9561
     5.2017   5.2030   5.2462   5.2510   5.2605   5.2614   5.3548   5.3552
     5.3734   5.3758   5.4318   5.4346   5.7436   5.7455   5.7489   5.7511
     6.5288   6.5395   7.5428   7.5524   8.2308   8.2437   8.2727   8.2730

          k = 0.0000 0.1283 0.0792 ( 74552 PWs)   bands (ev):

    -8.3401  -8.3397  -8.3395  -8.3394  -8.3393  -8.3392  -8.2670  -8.2670
    -8.2664  -8.2664  -8.2660  -8.2660  -8.2556  -8.2555  -8.2546  -8.2545
    -8.2544  -8.2543  -8.2288  -8.2287  -8.2285  -8.2285  -8.2283  -8.2282
    -7.5477  -7.5468  -7.5446  -7.5442  -7.5419  -7.5417  -7.4737  -7.4736
    -7.4734  -7.4732  -7.4719  -7.4719  -7.4385  -7.4385  -7.4375  -7.4375
    -7.4369  -7.4369  -7.3796  -7.3792  -7.3785  -7.3784  -7.3780  -7.3780
    -7.3277  -7.3276  -7.3248  -7.3248  -7.3220  -7.3220  -7.2629  -7.2628
    -7.2626  -7.2625  -7.2621  -7.2620  -6.6780  -6.6773  -6.6743  -6.6739
    -6.5627  -6.5617  -6.4612  -6.4605  -6.3430  -6.3429  -6.3411  -6.3407
     0.4056   0.4059   0.4079   0.4082   0.6313   0.6314   2.3228   2.3229
     2.7725   2.7732   2.7850   2.7862   4.4584   4.4597   4.4755   4.4763
     4.5604   4.5620   4.6851   4.6882   4.8219   4.8220   4.8622   4.8648
     5.1416   5.1429   5.1812   5.1870   5.2067   5.2078   5.3113   5.3119
     5.3394   5.3427   5.3881   5.3909   5.7643   5.7656   5.7671   5.7686
     6.4981   6.5079   7.7158   7.7245   8.3003   8.3165   8.3634   8.3651

          k = 0.0000 0.1497 0.0792 ( 74510 PWs)   bands (ev):

    -8.3431  -8.3426  -8.3423  -8.3422  -8.3421  -8.3420  -8.2692  -8.2692
    -8.2685  -8.2684  -8.2680  -8.2680  -8.2597  -8.2597  -8.2584  -8.2583
    -8.2582  -8.2581  -8.2285  -8.2285  -8.2283  -8.2282  -8.2281  -8.2280
    -7.5611  -7.5602  -7.5575  -7.5570  -7.5542  -7.5540  -7.4794  -7.4793
    -7.4786  -7.4782  -7.4768  -7.4767  -7.4399  -7.4398  -7.4389  -7.4388
    -7.4383  -7.4383  -7.3791  -7.3788  -7.3781  -7.3781  -7.3777  -7.3776
    -7.3264  -7.3263  -7.3242  -7.3242  -7.3215  -7.3215  -7.2595  -7.2594
    -7.2592  -7.2591  -7.2587  -7.2585  -6.6314  -6.6305  -6.6269  -6.6266
    -6.5193  -6.5183  -6.4175  -6.4168  -6.3025  -6.3024  -6.3003  -6.2996
     0.4305   0.4309   0.4343   0.4347   0.6421   0.6423   2.3375   2.3375
     2.7192   2.7202   2.7391   2.7406   4.2780   4.2796   4.2909   4.2910
     4.3652   4.3667   4.5345   4.5377   4.7261   4.7269   4.7705   4.7731
     5.0804   5.0816   5.1155   5.1221   5.1510   5.1523   5.2633   5.2640
     5.3007   5.3047   5.3422   5.3452   5.7761   5.7798   5.7814   5.7849
     6.4592   6.4683   7.8814   7.8889   8.3595   8.3788   8.4472   8.4514

          k = 0.0000 0.1711 0.0792 ( 74550 PWs)   bands (ev):

    -8.3464  -8.3459  -8.3456  -8.3455  -8.3453  -8.3452  -8.2717  -8.2716
    -8.2705  -8.2705  -8.2703  -8.2702  -8.2642  -8.2642  -8.2627  -8.2626
    -8.2624  -8.2624  -8.2284  -8.2283  -8.2281  -8.2281  -8.2280  -8.2278
    -7.5739  -7.5730  -7.5699  -7.5693  -7.5661  -7.5659  -7.4859  -7.4858
    -7.4844  -7.4839  -7.4824  -7.4822  -7.4411  -7.4410  -7.4401  -7.4400
    -7.4396  -7.4396  -7.3784  -7.3781  -7.3775  -7.3775  -7.3771  -7.3771
    -7.3255  -7.3254  -7.3238  -7.3237  -7.3213  -7.3213  -7.2559  -7.2557
    -7.2556  -7.2555  -7.2550  -7.2548  -6.5798  -6.5788  -6.5746  -6.5745
    -6.4708  -6.4697  -6.3694  -6.3685  -6.2575  -6.2575  -6.2549  -6.2541
     0.4571   0.4576   0.4630   0.4635   0.6522   0.6524   2.3501   2.3501
     2.6524   2.6537   2.6819   2.6839   4.0945   4.0962   4.1012   4.1017
     4.1717   4.1729   4.3815   4.3851   4.6369   4.6384   4.6842   4.6868
     5.0176   5.0189   5.0492   5.0565   5.0935   5.0949   5.2113   5.2122
     5.2579   5.2624   5.2935   5.2967   5.7804   5.7850   5.7950   5.7991
     6.4115   6.4200   8.0347   8.0411   8.4035   8.4254   8.5185   8.5255

          k = 0.0000 0.1925 0.0792 ( 74532 PWs)   bands (ev):

    -8.3502  -8.3496  -8.3493  -8.3492  -8.3489  -8.3488  -8.2746  -8.2745
    -8.2736  -8.2734  -8.2728  -8.2727  -8.2683  -8.2683  -8.2673  -8.2672
    -8.2667  -8.2667  -8.2282  -8.2282  -8.2279  -8.2279  -8.2278  -8.2277
    -7.5858  -7.5849  -7.5815  -7.5808  -7.5772  -7.5772  -7.4928  -7.4926
    -7.4906  -7.4900  -7.4884  -7.4883  -7.4422  -7.4421  -7.4412  -7.4411
    -7.4408  -7.4408  -7.3775  -7.3772  -7.3767  -7.3767  -7.3763  -7.3763
    -7.3247  -7.3247  -7.3234  -7.3233  -7.3212  -7.3211  -7.2522  -7.2520
    -7.2520  -7.2518  -7.2514  -7.2511  -6.5240  -6.5228  -6.5182  -6.5182
    -6.4179  -6.4168  -6.3172  -6.3164  -6.2086  -6.2084  -6.2055  -6.2046
     0.4843   0.4850   0.4932   0.4938   0.6604   0.6607   2.3578   2.3578
     2.5714   2.5730   2.6126   2.6152   3.9115   3.9117   3.9126   3.9135
     3.9868   3.9874   4.2304   4.2344   4.5579   4.5600   4.6074   4.6100
     4.9533   4.9548   4.9824   4.9904   5.0343   5.0360   5.1562   5.1572
     5.2115   5.2164   5.2423   5.2457   5.7783   5.7837   5.8048   5.8096
     6.3544   6.3625   8.1719   8.1769   8.4290   8.4525   8.5722   8.5819

          k = 0.0000 0.2138 0.0792 ( 74508 PWs)   bands (ev):

    -8.3543  -8.3537  -8.3534  -8.3532  -8.3529  -8.3528  -8.2788  -8.2787
    -8.2785  -8.2784  -8.2765  -8.2765  -8.2712  -8.2710  -8.2709  -8.2708
    -8.2702  -8.2702  -8.2280  -8.2280  -8.2277  -8.2277  -8.2277  -8.2276
    -7.5967  -7.5957  -7.5921  -7.5913  -7.5875  -7.5875  -7.4998  -7.4996
    -7.4970  -7.4963  -7.4947  -7.4945  -7.4431  -7.4430  -7.4422  -7.4421
    -7.4418  -7.4418  -7.3763  -7.3760  -7.3756  -7.3756  -7.3753  -7.3753
    -7.3241  -7.3241  -7.3230  -7.3229  -7.3211  -7.3210  -7.2485  -7.2483
    -7.2483  -7.2481  -7.2477  -7.2474  -6.4646  -6.4631  -6.4584  -6.4582
    -6.3611  -6.3600  -6.2618  -6.2608  -6.1564  -6.1560  -6.1529  -6.1517
     0.5110   0.5119   0.5237   0.5245   0.6657   0.6660   2.3563   2.3565
     2.4765   2.4784   2.5312   2.5345   3.7260   3.7276   3.7331   3.7351
     3.8166   3.8168   4.0850   4.0896   4.4916   4.4942   4.5427   4.5454
     4.8881   4.8898   4.9155   4.9242   4.9741   4.9761   5.0986   5.1000
     5.1623   5.1677   5.1890   5.1928   5.7692   5.7753   5.8105   5.8159
     6.2876   6.2953   8.2897   8.2931   8.4346   8.4582   8.6043   8.6156

          k = 0.0000 0.2352 0.0792 ( 74538 PWs)   bands (ev):

    -8.3586  -8.3580  -8.3578  -8.3576  -8.3571  -8.3570  -8.2851  -8.2850
    -8.2844  -8.2840  -8.2823  -8.2823  -8.2732  -8.2729  -8.2727  -8.2726
    -8.2725  -8.2725  -8.2278  -8.2278  -8.2275  -8.2275  -8.2275  -8.2274
    -7.6064  -7.6055  -7.6017  -7.6008  -7.5970  -7.5968  -7.5068  -7.5066
    -7.5034  -7.5026  -7.5010  -7.5008  -7.4439  -7.4438  -7.4431  -7.4430
    -7.4428  -7.4428  -7.3751  -7.3748  -7.3744  -7.3744  -7.3742  -7.3741
    -7.3236  -7.3235  -7.3226  -7.3225  -7.3210  -7.3209  -7.2448  -7.2446
    -7.2446  -7.2444  -7.2440  -7.2437  -6.4020  -6.4003  -6.3956  -6.3951
    -6.3012  -6.2999  -6.2036  -6.2026  -6.1014  -6.1007  -6.0976  -6.0960
     0.5354   0.5366   0.5532   0.5541   0.6667   0.6671   2.3403   2.3408
     2.3688   2.3709   2.4385   2.4424   3.5486   3.5507   3.5621   3.5643
     3.6673   3.6687   3.9488   3.9544   4.4389   4.4420   4.4908   4.4936
     4.8225   4.8245   4.8490   4.8585   4.9133   4.9156   5.0397   5.0413
     5.1113   5.1170   5.1342   5.1384   5.7521   5.7591   5.8114   5.8174
     6.2109   6.2183   8.3853   8.3868   8.4205   8.4418   8.6105   8.6204

          k = 0.0000 0.2566 0.0792 ( 74512 PWs)   bands (ev):

    -8.3631  -8.3625  -8.3624  -8.3621  -8.3615  -8.3614  -8.2923  -8.2922
    -8.2911  -8.2907  -8.2892  -8.2892  -8.2745  -8.2743  -8.2741  -8.2740
    -8.2738  -8.2738  -8.2277  -8.2276  -8.2274  -8.2273  -8.2273  -8.2272
    -7.6151  -7.6142  -7.6103  -7.6093  -7.6055  -7.6052  -7.5135  -7.5132
    -7.5097  -7.5088  -7.5073  -7.5070  -7.4446  -7.4445  -7.4439  -7.4438
    -7.4436  -7.4436  -7.3736  -7.3734  -7.3731  -7.3731  -7.3729  -7.3728
    -7.3230  -7.3230  -7.3221  -7.3220  -7.3208  -7.3207  -7.2412  -7.2410
    -7.2410  -7.2408  -7.2405  -7.2401  -6.3370  -6.3350  -6.3304  -6.3295
    -6.2387  -6.2373  -6.1433  -6.1421  -6.0443  -6.0432  -6.0401  -6.0382
     0.5560   0.5573   0.5800   0.5811   0.6622   0.6627   2.2504   2.2526
     2.3038   2.3048   2.3357   2.3403   3.3832   3.3856   3.4018   3.4044
     3.5463   3.5495   3.8250   3.8321   4.3995   4.4033   4.4510   4.4541
     4.7573   4.7595   4.7838   4.7942   4.8526   4.8554   4.9802   4.9822
     5.0591   5.0652   5.0786   5.0833   5.7262   5.7341   5.8065   5.8130
     6.1247   6.1316   8.3886   8.4047   8.4561   8.4566   8.5865   8.5896

          k = 0.0000 0.2780 0.0792 ( 74498 PWs)   bands (ev):

    -8.3676  -8.3671  -8.3670  -8.3668  -8.3660  -8.3659  -8.3000  -8.2999
    -8.2985  -8.2979  -8.2968  -8.2966  -8.2754  -8.2753  -8.2752  -8.2750
    -8.2747  -8.2747  -8.2275  -8.2275  -8.2272  -8.2272  -8.2271  -8.2270
    -7.6227  -7.6219  -7.6179  -7.6168  -7.6131  -7.6127  -7.5199  -7.5195
    -7.5157  -7.5147  -7.5133  -7.5130  -7.4453  -7.4452  -7.4447  -7.4446
    -7.4444  -7.4444  -7.3721  -7.3719  -7.3716  -7.3716  -7.3715  -7.3714
    -7.3225  -7.3225  -7.3216  -7.3215  -7.3206  -7.3205  -7.2377  -7.2374
    -7.2374  -7.2372  -7.2370  -7.2366  -6.2702  -6.2677  -6.2634  -6.2620
    -6.1742  -6.1727  -6.0814  -6.0802  -5.9857  -5.9841  -5.9813  -5.9789
     0.5706   0.5722   0.6022   0.6036   0.6512   0.6518   2.1239   2.1261
     2.2248   2.2299   2.2423   2.2439   3.2336   3.2363   3.2557   3.2587
     3.4587   3.4647   3.7162   3.7257   4.3725   4.3767   4.4214   4.4249
     4.6930   4.6955   4.7206   4.7322   4.7927   4.7959   4.9211   4.9234
     5.0066   5.0132   5.0230   5.0283   5.6904   5.6993   5.7947   5.8018
     6.0293   6.0359   8.3420   8.3497   8.4999   8.5025   8.5216   8.5298

          k = 0.0000 0.2994 0.0792 ( 74542 PWs)   bands (ev):

    -8.3722  -8.3718  -8.3716  -8.3714  -8.3706  -8.3704  -8.3079  -8.3078
    -8.3062  -8.3055  -8.3047  -8.3045  -8.2762  -8.2761  -8.2759  -8.2757
    -8.2754  -8.2754  -8.2273  -8.2273  -8.2270  -8.2270  -8.2269  -8.2268
    -7.6293  -7.6285  -7.6245  -7.6233  -7.6198  -7.6192  -7.5257  -7.5253
    -7.5214  -7.5202  -7.5189  -7.5185  -7.4460  -7.4458  -7.4454  -7.4454
    -7.4452  -7.4452  -7.3705  -7.3703  -7.3700  -7.3700  -7.3699  -7.3698
    -7.3219  -7.3219  -7.3211  -7.3209  -7.3203  -7.3201  -7.2342  -7.2340
    -7.2339  -7.2337  -7.2336  -7.2332  -6.2020  -6.1990  -6.1952  -6.1932
    -6.1085  -6.1068  -6.0188  -6.0173  -5.9264  -5.9242  -5.9218  -5.9188
     0.5773   0.5792   0.6180   0.6195   0.6328   0.6336   1.9922   1.9942
     2.1076   2.1131   2.1552   2.1574   3.1038   3.1065   3.1269   3.1304
     3.4051   3.4153   3.6246   3.6380   4.3557   4.3607   4.3992   4.4036
     4.6303   4.6332   4.6606   4.6737   4.7341   4.7379   4.8631   4.8661
     4.9545   4.9616   4.9679   4.9740   5.6443   5.6542   5.7751   5.7826
     5.9259   5.9321   8.2818   8.2847   8.4279   8.4463   8.5182   8.5229

          k = 0.0000 0.3208 0.0792 ( 74532 PWs)   bands (ev):

    -8.3766  -8.3764  -8.3762  -8.3760  -8.3751  -8.3748  -8.3159  -8.3159
    -8.3141  -8.3133  -8.3128  -8.3125  -8.2767  -8.2767  -8.2764  -8.2762
    -8.2760  -8.2759  -8.2271  -8.2271  -8.2268  -8.2268  -8.2267  -8.2266
    -7.6349  -7.6342  -7.6303  -7.6289  -7.6257  -7.6250  -7.5310  -7.5305
    -7.5266  -7.5253  -7.5241  -7.5237  -7.4466  -7.4465  -7.4461  -7.4461
    -7.4459  -7.4459  -7.3688  -7.3686  -7.3684  -7.3683  -7.3683  -7.3682
    -7.3213  -7.3213  -7.3206  -7.3204  -7.3199  -7.3198  -7.2309  -7.2306
    -7.2306  -7.2304  -7.2303  -7.2299  -6.1334  -6.1297  -6.1265  -6.1237
    -6.0422  -6.0403  -5.9561  -5.9544  -5.8672  -5.8641  -5.8622  -5.8585
     0.5745   0.5766   0.6069   0.6077   0.6252   0.6269   1.8581   1.8599
     1.9863   1.9920   2.0468   2.0495   2.9972   2.9999   3.0186   3.0227
     3.3801   3.3969   3.5523   3.5721   4.3472   4.3529   4.3814   4.3868
     4.5699   4.5733   4.6051   4.6200   4.6774   4.6820   4.8073   4.8108
     4.9036   4.9112   4.9141   4.9211   5.5875   5.5984   5.7467   5.7545
     5.8158   5.8215   8.2066   8.2212   8.3249   8.3497   8.5121   8.5188

          k = 0.0000 0.3421 0.0792 ( 74540 PWs)   bands (ev):

    -8.3810  -8.3808  -8.3806  -8.3803  -8.3794  -8.3791  -8.3240  -8.3240
    -8.3220  -8.3211  -8.3209  -8.3206  -8.2770  -8.2770  -8.2768  -8.2765
    -8.2763  -8.2763  -8.2269  -8.2269  -8.2266  -8.2266  -8.2265  -8.2265
    -7.6397  -7.6391  -7.6353  -7.6338  -7.6309  -7.6300  -7.5357  -7.5351
    -7.5314  -7.5299  -7.5289  -7.5283  -7.4473  -7.4472  -7.4468  -7.4468
    -7.4466  -7.4466  -7.3671  -7.3669  -7.3667  -7.3666  -7.3666  -7.3665
    -7.3207  -7.3207  -7.3200  -7.3198  -7.3195  -7.3193  -7.2277  -7.2275
    -7.2273  -7.2272  -7.2271  -7.2267  -6.0649  -6.0604  -6.0581  -6.0543
    -5.9761  -5.9738  -5.8941  -5.8920  -5.8087  -5.8046  -5.8035  -5.7990
     0.5610   0.5633   0.5735   0.5746   0.6222   0.6240   1.7246   1.7261
     1.8629   1.8686   1.9238   1.9269   2.9164   2.9188   2.9333   2.9380
     3.3733   3.4006   3.5022   3.5325   4.3442   4.3510   4.3644   4.3709
     4.5124   4.5163   4.5559   4.5729   4.6230   4.6287   4.7542   4.7587
     4.8544   4.8619   4.8627   4.8701   5.5206   5.5325   5.7008   5.7059
     5.7088   5.7167   8.1302   8.1556   8.2232   8.2513   8.4508   8.4764

          k = 0.0000 0.3635 0.0792 ( 74532 PWs)   bands (ev):

    -8.3853  -8.3849  -8.3848  -8.3844  -8.3835  -8.3831  -8.3320  -8.3318
    -8.3298  -8.3290  -8.3287  -8.3285  -8.2773  -8.2773  -8.2770  -8.2768
    -8.2766  -8.2765  -8.2268  -8.2267  -8.2265  -8.2264  -8.2263  -8.2263
    -7.6437  -7.6433  -7.6397  -7.6379  -7.6355  -7.6343  -7.5398  -7.5392
    -7.5356  -7.5339  -7.5332  -7.5325  -7.4479  -7.4478  -7.4475  -7.4475
    -7.4473  -7.4473  -7.3654  -7.3652  -7.3650  -7.3649  -7.3649  -7.3649
    -7.3201  -7.3201  -7.3194  -7.3192  -7.3190  -7.3188  -7.2246  -7.2244
    -7.2243  -7.2242  -7.2240  -7.2237  -5.9973  -5.9919  -5.9906  -5.9856
    -5.9109  -5.9082  -5.8336  -5.8311  -5.7518  -5.7466  -5.7464  -5.7409
     0.5338   0.5350   0.5367   0.5392   0.6081   0.6099   1.5943   1.5953
     1.7398   1.7452   1.7933   1.7968   2.8625   2.8646   2.8727   2.8780
     3.3727   3.4094   3.4841   3.5238   4.3443   4.3446   4.3520   4.3523
     4.4583   4.4627   4.5148   4.5337   4.5713   4.5786   4.7048   4.7103
     4.8076   4.8120   4.8167   4.8216   5.4449   5.4578   5.5832   5.5876
     5.6612   5.6691   8.0572   8.0913   8.1282   8.1576   8.3666   8.4023

          k = 0.0000 0.3849 0.0792 ( 74584 PWs)   bands (ev):

    -8.3893  -8.3888  -8.3884  -8.3882  -8.3874  -8.3869  -8.3396  -8.3394
    -8.3373  -8.3369  -8.3362  -8.3362  -8.2774  -8.2774  -8.2772  -8.2769
    -8.2767  -8.2767  -8.2266  -8.2266  -8.2263  -8.2263  -8.2262  -8.2261
    -7.6471  -7.6467  -7.6434  -7.6414  -7.6395  -7.6381  -7.5434  -7.5426
    -7.5394  -7.5375  -7.5371  -7.5362  -7.4485  -7.4484  -7.4481  -7.4481
    -7.4480  -7.4479  -7.3637  -7.3636  -7.3633  -7.3633  -7.3632  -7.3632
    -7.3195  -7.3195  -7.3188  -7.3187  -7.3185  -7.3184  -7.2218  -7.2216
    -7.2215  -7.2214  -7.2212  -7.2209  -5.9315  -5.9250  -5.9249  -5.9186
    -5.8477  -5.8443  -5.7754  -5.7724  -5.6974  -5.6919  -5.6907  -5.6851
     0.4893   0.4907   0.5027   0.5053   0.5829   0.5845   1.4697   1.4702
     1.6191   1.6242   1.6614   1.6651   2.8350   2.8367   2.8375   2.8434
     3.3723   3.4065   3.5073   3.5449   4.3203   4.3276   4.3444   4.3541
     4.4080   4.4132   4.4826   4.5025   4.5228   4.5321   4.6596   4.6665
     4.7636   4.7647   4.7736   4.7760   5.3625   5.3764   5.4657   5.4693
     5.6043   5.6119   7.9905   8.0307   8.0421   8.0716   8.2965   8.3392

          k = 0.0000 0.4063 0.0792 ( 74574 PWs)   bands (ev):

    -8.3929  -8.3924  -8.3917  -8.3917  -8.3909  -8.3903  -8.3469  -8.3466
    -8.3445  -8.3443  -8.3435  -8.3433  -8.2775  -8.2775  -8.2772  -8.2770
    -8.2768  -8.2767  -8.2265  -8.2265  -8.2262  -8.2262  -8.2260  -8.2260
    -7.6499  -7.6497  -7.6466  -7.6444  -7.6429  -7.6413  -7.5464  -7.5456
    -7.5427  -7.5406  -7.5404  -7.5394  -7.4491  -7.4490  -7.4487  -7.4487
    -7.4486  -7.4486  -7.3620  -7.3619  -7.3617  -7.3617  -7.3616  -7.3616
    -7.3189  -7.3189  -7.3183  -7.3182  -7.3180  -7.3179  -7.2192  -7.2190
    -7.2188  -7.2188  -7.2185  -7.2184  -5.8685  -5.8622  -5.8604  -5.8540
    -5.7872  -5.7831  -5.7205  -5.7167  -5.6465  -5.6407  -5.6379  -5.6324
     0.4421   0.4436   0.4611   0.4636   0.5478   0.5492   1.3531   1.3532
     1.5034   1.5080   1.5327   1.5364   2.8268   2.8317   2.8330   2.8332
     3.3742   3.4028   3.5542   3.5867   4.2917   4.2979   4.3418   4.3537
     4.3621   4.3682   4.4571   4.4773   4.4776   4.4897   4.6193   4.6277
     4.7204   4.7230   4.7339   4.7339   5.2769   5.2915   5.3515   5.3539
     5.5389   5.5460   7.9320   7.9658   7.9751   7.9942   8.2418   8.2882

          k = 0.0000 0.4277 0.0792 ( 74544 PWs)   bands (ev):

    -8.3961  -8.3955  -8.3948  -8.3946  -8.3940  -8.3932  -8.3537  -8.3532
    -8.3514  -8.3512  -8.3503  -8.3498  -8.2775  -8.2775  -8.2773  -8.2770
    -8.2768  -8.2768  -8.2264  -8.2264  -8.2261  -8.2261  -8.2259  -8.2259
    -7.6521  -7.6521  -7.6493  -7.6469  -7.6459  -7.6441  -7.5489  -7.5480
    -7.5455  -7.5434  -7.5431  -7.5421  -7.4496  -7.4495  -7.4493  -7.4493
    -7.4492  -7.4491  -7.3605  -7.3604  -7.3601  -7.3601  -7.3600  -7.3600
    -7.3183  -7.3183  -7.3178  -7.3177  -7.3174  -7.3174  -7.2168  -7.2167
    -7.2164  -7.2164  -7.2161  -7.2160  -5.8091  -5.8032  -5.7993  -5.7927
    -5.7307  -5.7255  -5.6696  -5.6647  -5.5998  -5.5939  -5.5890  -5.5838
     0.3946   0.3961   0.4146   0.4169   0.5050   0.5060   1.2463   1.2469
     1.3950   1.3990   1.4105   1.4144   2.8386   2.8454   2.8494   2.8503
     3.3802   3.4049   3.6111   3.6404   4.2608   4.2654   4.3210   4.3280
     4.3337   4.3484   4.4345   4.4363   4.4519   4.4545   4.5837   4.5937
     4.6794   4.6859   4.6956   4.6979   5.1923   5.2074   5.2441   5.2451
     5.4665   5.4730   7.8828   7.8992   7.9258   7.9258   8.2029   8.2501

          k = 0.0000 0.4491 0.0792 ( 74556 PWs)   bands (ev):

    -8.3988  -8.3983  -8.3975  -8.3971  -8.3967  -8.3958  -8.3599  -8.3593
    -8.3578  -8.3573  -8.3564  -8.3558  -8.2775  -8.2775  -8.2772  -8.2770
    -8.2768  -8.2768  -8.2263  -8.2263  -8.2260  -8.2260  -8.2258  -8.2258
    -7.6540  -7.6539  -7.6516  -7.6489  -7.6485  -7.6465  -7.5509  -7.5499
    -7.5480  -7.5459  -7.5453  -7.5444  -7.4501  -7.4501  -7.4498  -7.4498
    -7.4497  -7.4497  -7.3591  -7.3590  -7.3587  -7.3587  -7.3586  -7.3586
    -7.3178  -7.3177  -7.3173  -7.3173  -7.3169  -7.3169  -7.2147  -7.2146
    -7.2143  -7.2143  -7.2140  -7.2139  -5.7544  -5.7489  -5.7425  -5.7358
    -5.6792  -5.6728  -5.6234  -5.6173  -5.5584  -5.5522  -5.5449  -5.5399
     0.3492   0.3508   0.3664   0.3685   0.4575   0.4581   1.1515   1.1528
     1.2962   1.2977   1.2997   1.3016   2.8699   2.8772   2.8837   2.8844
     3.3884   3.4106   3.6732   3.7007   4.2298   4.2325   4.2852   4.2933
     4.3182   4.3354   4.4001   4.4110   4.4188   4.4306   4.5522   4.5634
     4.6421   4.6528   4.6615   4.6659   5.1137   5.1288   5.1469   5.1476
     5.3892   5.3948   7.8422   7.8435   7.8662   7.8845   8.1793   8.1842

          k = 0.0000 0.4704 0.0792 ( 74562 PWs)   bands (ev):

    -8.4011  -8.4005  -8.3998  -8.3991  -8.3989  -8.3978  -8.3655  -8.3646
    -8.3636  -8.3627  -8.3619  -8.3612  -8.2775  -8.2774  -8.2772  -8.2770
    -8.2768  -8.2768  -8.2263  -8.2262  -8.2260  -8.2259  -8.2258  -8.2258
    -7.6556  -7.6553  -7.6536  -7.6508  -7.6504  -7.6485  -7.5525  -7.5514
    -7.5500  -7.5480  -7.5471  -7.5463  -7.4505  -7.4505  -7.4502  -7.4502
    -7.4502  -7.4501  -7.3578  -7.3577  -7.3575  -7.3575  -7.3574  -7.3573
    -7.3173  -7.3173  -7.3169  -7.3168  -7.3165  -7.3165  -7.2129  -7.2128
    -7.2125  -7.2125  -7.2122  -7.2121  -5.7055  -5.7006  -5.6910  -5.6841
    -5.6343  -5.6263  -5.5823  -5.5747  -5.5230  -5.5166  -5.5062  -5.5017
     0.3083   0.3100   0.3197   0.3215   0.4083   0.4085   1.0707   1.0725
     1.1964   1.2004   1.2090   1.2119   2.9173   2.9250   2.9299   2.9304
     3.3949   3.4153   3.7377   3.7642   4.2001   4.2009   4.2553   4.2644
     4.2949   4.3119   4.3714   4.3841   4.3902   4.4033   4.5236   4.5351
     4.6092   4.6238   4.6319   4.6380   5.0462   5.0606   5.0637   5.0663
     5.3092   5.3141   7.7944   7.8150   7.8153   7.8527   8.1166   8.1329

          k = 0.0000 0.4918 0.0792 ( 74572 PWs)   bands (ev):

    -8.4029  -8.4023  -8.4017  -8.4010  -8.4004  -8.3995  -8.3702  -8.3690
    -8.3686  -8.3674  -8.3664  -8.3657  -8.2774  -8.2774  -8.2772  -8.2770
    -8.2768  -8.2767  -8.2262  -8.2262  -8.2259  -8.2259  -8.2257  -8.2257
    -7.6567  -7.6563  -7.6551  -7.6526  -7.6517  -7.6501  -7.5537  -7.5525
    -7.5516  -7.5497  -7.5485  -7.5479  -7.4509  -7.4509  -7.4506  -7.4506
    -7.4506  -7.4505  -7.3567  -7.3567  -7.3564  -7.3564  -7.3563  -7.3563
    -7.3169  -7.3168  -7.3165  -7.3165  -7.3161  -7.3161  -7.2113  -7.2113
    -7.2110  -7.2110  -7.2107  -7.2106  -5.6634  -5.6592  -5.6458  -5.6386
    -5.5971  -5.5879  -5.5464  -5.5374  -5.4945  -5.4878  -5.4735  -5.4696
     0.2742   0.2759   0.2774   0.2789   0.3604   0.3607   1.0053   1.0075
     1.1085   1.1124   1.1352   1.1375   2.9770   2.9826   2.9830   2.9852
     3.3945   3.4133   3.8027   3.8284   4.1711   4.1723   4.2320   4.2420
     4.2648   4.2785   4.3507   4.3529   4.3661   4.3716   4.4975   4.5081
     4.5817   4.5990   4.6075   4.6144   4.9936   4.9997   5.0040   5.0064
     5.2294   5.2336   7.7557   7.7730   7.7979   7.8320   8.0515   8.0687

          k = 0.0000 0.5132 0.0792 ( 74604 PWs)   bands (ev):

    -8.4042  -8.4035  -8.4032  -8.4025  -8.4014  -8.4007  -8.3740  -8.3728
    -8.3725  -8.3712  -8.3701  -8.3695  -8.2774  -8.2774  -8.2771  -8.2770
    -8.2767  -8.2767  -8.2262  -8.2262  -8.2259  -8.2259  -8.2257  -8.2257
    -7.6576  -7.6569  -7.6563  -7.6542  -7.6526  -7.6514  -7.5545  -7.5533
    -7.5529  -7.5511  -7.5495  -7.5490  -7.4512  -7.4512  -7.4509  -7.4509
    -7.4509  -7.4508  -7.3559  -7.3558  -7.3555  -7.3555  -7.3554  -7.3554
    -7.3166  -7.3165  -7.3162  -7.3162  -7.3158  -7.3158  -7.2101  -7.2101
    -7.2098  -7.2098  -7.2094  -7.2094  -5.6292  -5.6258  -5.6078  -5.6003
    -5.5690  -5.5591  -5.5155  -5.5058  -5.4734  -5.4664  -5.4475  -5.4444
     0.2419   0.2431   0.2487   0.2504   0.3169   0.3175   0.9563   0.9590
     1.0354   1.0392   1.0762   1.0780   3.0356   3.0359   3.0450   3.0538
     3.3824   3.3995   3.8670   3.8915   4.1423   4.1460   4.2163   4.2268
     4.2308   4.2403   4.3181   4.3357   4.3361   4.3466   4.4749   4.4835
     4.5610   4.5784   4.5887   4.5954   4.9569   4.9582   4.9637   4.9670
     5.1527   5.1564   7.7261   7.7393   7.7927   7.8232   7.9904   8.0086

          k = 0.0000 0.5346 0.0792 ( 74598 PWs)   bands (ev):

    -8.4050  -8.4044  -8.4042  -8.4036  -8.4021  -8.4015  -8.3767  -8.3759
    -8.3750  -8.3741  -8.3727  -8.3722  -8.2773  -8.2773  -8.2771  -8.2770
    -8.2767  -8.2767  -8.2262  -8.2261  -8.2259  -8.2258  -8.2257  -8.2257
    -7.6581  -7.6574  -7.6572  -7.6554  -7.6532  -7.6524  -7.5550  -7.5540
    -7.5536  -7.5522  -7.5502  -7.5499  -7.4514  -7.4514  -7.4511  -7.4511
    -7.4511  -7.4511  -7.3552  -7.3552  -7.3549  -7.3549  -7.3548  -7.3548
    -7.3163  -7.3163  -7.3160  -7.3160  -7.3156  -7.3156  -7.2093  -7.2092
    -7.2089  -7.2089  -7.2086  -7.2086  -5.6038  -5.6014  -5.5778  -5.5699
    -5.5508  -5.5408  -5.4900  -5.4804  -5.4604  -5.4530  -5.4285  -5.4263
     0.2152   0.2160   0.2331   0.2347   0.2802   0.2812   0.9248   0.9278
     0.9783   0.9821   1.0334   1.0345   3.0818   3.0820   3.1171   3.1267
     3.3552   3.3704   3.9289   3.9516   4.1126   4.1196   4.1981   4.2040
     4.2090   4.2199   4.2821   4.2989   4.3253   4.3320   4.4577   4.4636
     4.5480   4.5622   4.5758   4.5811   4.9343   4.9410   4.9413   4.9468
     5.0824   5.0859   7.7055   7.7145   7.7995   7.8269   7.9351   7.9544

          k = 0.0000 0.5560 0.0792 ( 74630 PWs)   bands (ev):

    -8.4054  -8.4050  -8.4047  -8.4043  -8.4023  -8.4020  -8.3783  -8.3779
    -8.3765  -8.3760  -8.3743  -8.3740  -8.2773  -8.2773  -8.2770  -8.2770
    -8.2767  -8.2767  -8.2261  -8.2261  -8.2258  -8.2258  -8.2257  -8.2257
    -7.6584  -7.6580  -7.6572  -7.6563  -7.6534  -7.6530  -7.5552  -7.5547
    -7.5537  -7.5530  -7.5505  -7.5504  -7.4516  -7.4515  -7.4513  -7.4513
    -7.4512  -7.4512  -7.3548  -7.3548  -7.3545  -7.3545  -7.3544  -7.3544
    -7.3161  -7.3161  -7.3159  -7.3159  -7.3155  -7.3155  -7.2087  -7.2087
    -7.2084  -7.2084  -7.2080  -7.2080  -5.5879  -5.5867  -5.5566  -5.5482
    -5.5427  -5.5332  -5.4709  -5.4618  -5.4557  -5.4477  -5.4168  -5.4156
     0.1987   0.1991   0.2284   0.2300   0.2525   0.2537   0.9111   0.9145
     0.9381   0.9418   1.0074   1.0079   3.1138   3.1139   3.1888   3.1994
     3.3122   3.3256   3.9865   4.0063   4.0787   4.0899   4.1742   4.1769
     4.2115   4.2230   4.2493   4.2643   4.3194   4.3226   4.4474   4.4504
     4.5425   4.5505   4.5689   4.5718   4.9230   4.9265   4.9477   4.9530
     5.0221   5.0260   7.6941   7.6986   7.8180   7.8427   7.8870   7.9077

          k = 0.0000 0.5774 0.0792 ( 74632 PWs)   bands (ev):

    -8.4054  -8.4054  -8.4047  -8.4047  -8.4023  -8.4023  -8.3787  -8.3787
    -8.3768  -8.3768  -8.3747  -8.3747  -8.2773  -8.2773  -8.2770  -8.2770
    -8.2767  -8.2767  -8.2261  -8.2261  -8.2258  -8.2258  -8.2257  -8.2257
    -7.6583  -7.6583  -7.6569  -7.6569  -7.6534  -7.6534  -7.5551  -7.5551
[...]
    -7.4322  -7.4320  -7.3804  -7.3802  -7.3790  -7.3774  -7.3772  -7.3764
    -7.3324  -7.3322  -7.3274  -7.3272  -7.3251  -7.3206  -7.2703  -7.2695
    -7.2694  -7.2672  -7.2669  -7.2669  -6.7769  -6.7761  -6.6892  -6.6892
    -6.6863  -6.6863  -6.4745  -6.4745  -6.4725  -6.4725  -6.3815  -6.3812
     0.2989   0.2989   0.5183   0.5184   0.5186   0.5187   2.4763   2.4763
     2.4767   2.4768   3.0510   3.0516   4.7079   4.7107   4.8965   4.8966
     4.8973   4.8974   4.9629   4.9630   4.9683   4.9684   5.0928   5.0993
     5.2771   5.2780   5.2780   5.2815   5.2815   5.2837   5.3858   5.3962
     5.4475   5.4476   5.4502   5.4503   5.5128   5.5168   6.2008   6.2009
     6.2060   6.2060   7.7152   7.7153   7.7183   7.7183   8.3827   8.3953

          k = 0.0323 0.0559-0.0000 ( 74567 PWs)   bands (ev):

    -8.3343  -8.3340  -8.3339  -8.3337  -8.3334  -8.3333  -8.2616  -8.2613
    -8.2612  -8.2611  -8.2608  -8.2608  -8.2472  -8.2470  -8.2469  -8.2455
    -8.2452  -8.2451  -8.2306  -8.2304  -8.2303  -8.2292  -8.2289  -8.2289
    -7.5108  -7.5106  -7.5093  -7.5053  -7.5050  -7.5042  -7.4644  -7.4641
    -7.4640  -7.4610  -7.4604  -7.4603  -7.4359  -7.4353  -7.4351  -7.4332
    -7.4328  -7.4327  -7.3790  -7.3788  -7.3780  -7.3774  -7.3771  -7.3766
    -7.3338  -7.3336  -7.3309  -7.3308  -7.3250  -7.3226  -7.2717  -7.2712
    -7.2710  -7.2700  -7.2697  -7.2697  -6.8062  -6.8057  -6.7157  -6.7157
    -6.7139  -6.7139  -6.4993  -6.4993  -6.4982  -6.4982  -6.4053  -6.4051
     0.2816   0.2816   0.5069   0.5069   0.5071   0.5072   2.4743   2.4743
     2.4745   2.4746   3.0902   3.0905   4.8113   4.8142   5.0149   5.0150
     5.0158   5.0159   5.0958   5.0959   5.0999   5.1000   5.1561   5.1593
     5.3038   5.3076   5.3339   5.3339   5.3362   5.3363   5.4247   5.4300
     5.4970   5.4971   5.4995   5.4995   5.5354   5.5373   6.1624   6.1625
     6.1670   6.1670   7.6063   7.6063   7.6087   7.6088   8.3198   8.3302

          k = 0.0215 0.0372-0.0000 ( 74581 PWs)   bands (ev):

    -8.3330  -8.3328  -8.3328  -8.3326  -8.3325  -8.3325  -8.2602  -8.2601
    -8.2599  -8.2599  -8.2598  -8.2598  -8.2448  -8.2445  -8.2445  -8.2442
    -8.2439  -8.2438  -8.2307  -8.2304  -8.2304  -8.2302  -8.2299  -8.2299
    -7.4996  -7.4993  -7.4991  -7.4975  -7.4972  -7.4972  -7.4609  -7.4606
    -7.4605  -7.4595  -7.4592  -7.4591  -7.4347  -7.4344  -7.4344  -7.4338
    -7.4336  -7.4335  -7.3776  -7.3774  -7.3770  -7.3770  -7.3767  -7.3765
    -7.3355  -7.3354  -7.3343  -7.3342  -7.3253  -7.3245  -7.2726  -7.2723
    -7.2722  -7.2720  -7.2718  -7.2717  -6.8277  -6.8275  -6.7350  -6.7350
    -6.7341  -6.7341  -6.5175  -6.5175  -6.5169  -6.5169  -6.4227  -6.4225
     0.2691   0.2691   0.4984   0.4984   0.4986   0.4987   2.4723   2.4723
     2.4724   2.4724   3.1175   3.1176   4.8815   4.8840   5.0854   5.0854
     5.0858   5.0858   5.2136   5.2149   5.2150   5.2158   5.2179   5.2179
     5.3168   5.3184   5.3824   5.3824   5.3841   5.3841   5.4567   5.4584
     5.5538   5.5538   5.5561   5.5561   5.5585   5.5592   6.1116   6.1117
     6.1152   6.1153   7.5195   7.5196   7.5213   7.5214   8.2692   8.2770

          k = 0.0108 0.0186-0.0000 ( 74575 PWs)   bands (ev):

    -8.3323  -8.3323  -8.3320  -8.3320  -8.3320  -8.3319  -8.2594  -8.2594
    -8.2591  -8.2591  -8.2591  -8.2591  -8.2433  -8.2432  -8.2430  -8.2430
    -8.2429  -8.2429  -8.2310  -8.2309  -8.2307  -8.2306  -8.2306  -8.2305
    -7.4928  -7.4925  -7.4922  -7.4920  -7.4918  -7.4917  -7.4587  -7.4585
    -7.4584  -7.4583  -7.4581  -7.4581  -7.4347  -7.4346  -7.4344  -7.4343
    -7.4340  -7.4338  -7.3765  -7.3765  -7.3763  -7.3762  -7.3762  -7.3761
    -7.3371  -7.3370  -7.3368  -7.3367  -7.3258  -7.3257  -7.2732  -7.2732
    -7.2730  -7.2729  -7.2729  -7.2728  -6.8410  -6.8408  -6.7467  -6.7467
    -6.7464  -6.7464  -6.5285  -6.5285  -6.5283  -6.5283  -6.4332  -6.4331
     0.2615   0.2615   0.4932   0.4932   0.4934   0.4934   2.4708   2.4708
     2.4709   2.4709   3.1335   3.1335   4.9209   4.9223   5.1239   5.1240
     5.1240   5.1241   5.2604   5.2622   5.2888   5.2888   5.2904   5.2904
     5.3156   5.3158   5.4158   5.4158   5.4174   5.4174   5.4786   5.4788
     5.5760   5.5761   5.6145   5.6145   5.6164   5.6164   6.0596   6.0596
     6.0618   6.0619   7.4634   7.4635   7.4644   7.4645   8.2371   8.2413

          k = 0.0000 0.0000 0.0000 ( 74593 PWs)   bands (ev):

    -8.3321  -8.3321  -8.3318  -8.3318  -8.3317  -8.3317  -8.2592  -8.2592
    -8.2589  -8.2589  -8.2589  -8.2589  -8.2428  -8.2428  -8.2425  -8.2425
    -8.2425  -8.2425  -8.2312  -8.2312  -8.2309  -8.2309  -8.2307  -8.2307
    -7.4907  -7.4907  -7.4898  -7.4898  -7.4896  -7.4896  -7.4580  -7.4580
    -7.4577  -7.4577  -7.4576  -7.4576  -7.4348  -7.4348  -7.4346  -7.4346
    -7.4339  -7.4339  -7.3763  -7.3763  -7.3759  -7.3759  -7.3758  -7.3758
    -7.3378  -7.3378  -7.3376  -7.3376  -7.3261  -7.3261  -7.2735  -7.2735
    -7.2732  -7.2732  -7.2732  -7.2732  -6.8454  -6.8454  -6.7506  -6.7506
    -6.7505  -6.7505  -6.5322  -6.5322  -6.5322  -6.5322  -6.4367  -6.4367
     0.2589   0.2589   0.4914   0.4914   0.4917   0.4917   2.4703   2.4703
     2.4704   2.4704   3.1388   3.1388   4.9338   4.9338   5.1362   5.1362
     5.1362   5.1362   5.2868   5.2868   5.3057   5.3057   5.3130   5.3130
     5.3130   5.3130   5.4278   5.4278   5.4294   5.4294   5.4864   5.4864
     5.5825   5.5825   5.6447   5.6447   5.6465   5.6465   6.0352   6.0352
     6.0353   6.0353   7.4443   7.4443   7.4444   7.4444   8.2274   8.2274

          k = 0.0000 0.5774 0.0792 ( 74632 PWs)   bands (ev):

    -8.4054  -8.4054  -8.4047  -8.4047  -8.4023  -8.4023  -8.3787  -8.3787
    -8.3768  -8.3768  -8.3747  -8.3747  -8.2773  -8.2773  -8.2770  -8.2770
    -8.2767  -8.2767  -8.2261  -8.2261  -8.2258  -8.2258  -8.2257  -8.2257
    -7.6583  -7.6583  -7.6569  -7.6569  -7.6534  -7.6534  -7.5551  -7.5551
    -7.5535  -7.5535  -7.5506  -7.5506  -7.4516  -7.4516  -7.4513  -7.4513
    -7.4512  -7.4512  -7.3547  -7.3547  -7.3544  -7.3544  -7.3543  -7.3543
    -7.3161  -7.3161  -7.3158  -7.3158  -7.3154  -7.3154  -7.2086  -7.2086
    -7.2082  -7.2082  -7.2079  -7.2079  -5.5821  -5.5821  -5.5447  -5.5447
    -5.5358  -5.5358  -5.4593  -5.4593  -5.4508  -5.4508  -5.4125  -5.4125
     0.1933   0.1933   0.2349   0.2349   0.2363   0.2363   0.9156   0.9156
     0.9191   0.9191   0.9988   0.9988   3.1254   3.1254   3.2554   3.2554
     3.2672   3.2672   4.0370   4.0370   4.0528   4.0528   4.1661   4.1661
     4.2249   4.2249   4.2378   4.2378   4.3184   4.3184   4.4449   4.4449
     4.5437   4.5437   4.5676   4.5676   4.9207   4.9207   4.9759   4.9759
     4.9804   4.9804   7.6918   7.6918   7.8475   7.8475   7.8700   7.8700

          k = 0.0000 0.5774 0.0594 ( 74614 PWs)   bands (ev):

    -8.4057  -8.4052  -8.4050  -8.4042  -8.4025  -8.4022  -8.3790  -8.3783
    -8.3774  -8.3762  -8.3750  -8.3745  -8.2773  -8.2773  -8.2770  -8.2769
    -8.2767  -8.2766  -8.2261  -8.2261  -8.2259  -8.2258  -8.2257  -8.2256
    -7.6587  -7.6578  -7.6575  -7.6562  -7.6537  -7.6533  -7.5554  -7.5546
    -7.5541  -7.5529  -7.5509  -7.5505  -7.4516  -7.4516  -7.4513  -7.4513
    -7.4512  -7.4512  -7.3547  -7.3547  -7.3544  -7.3544  -7.3543  -7.3543
    -7.3161  -7.3161  -7.3159  -7.3158  -7.3155  -7.3154  -7.2086  -7.2085
    -7.2083  -7.2081  -7.2079  -7.2078  -5.5821  -5.5807  -5.5535  -5.5453
    -5.5352  -5.5258  -5.4694  -5.4604  -5.4497  -5.4419  -5.4138  -5.4126
     0.1940   0.1943   0.2273   0.2289   0.2418   0.2430   0.9035   0.9065
     0.9294   0.9334   0.9966   0.9976   3.1258   3.1284   3.2226   3.2346
     3.2896   3.3003   3.9971   4.0111   4.0737   4.0905   4.1625   4.1710
     4.2056   4.2144   4.2480   4.2655   4.3163   4.3167   4.4442   4.4537
     4.5223   4.5540   4.5622   4.5790   4.9155   4.9184   4.9380   4.9449
     5.0144   5.0170   7.6997   7.7064   7.7791   7.7903   7.9109   7.9579

          k = 0.0000 0.5774 0.0396 ( 74580 PWs)   bands (ev):

    -8.4058  -8.4055  -8.4046  -8.4037  -8.4028  -8.4023  -8.3791  -8.3780
    -8.3777  -8.3757  -8.3754  -8.3745  -8.2773  -8.2773  -8.2770  -8.2769
    -8.2767  -8.2766  -8.2261  -8.2261  -8.2259  -8.2258  -8.2257  -8.2256
    -7.6590  -7.6582  -7.6570  -7.6554  -7.6542  -7.6533  -7.5557  -7.5548
    -7.5539  -7.5522  -7.5513  -7.5505  -7.4516  -7.4516  -7.4513  -7.4513
    -7.4512  -7.4512  -7.3547  -7.3547  -7.3544  -7.3544  -7.3543  -7.3543
    -7.3161  -7.3161  -7.3158  -7.3157  -7.3155  -7.3155  -7.2086  -7.2085
    -7.2083  -7.2081  -7.2079  -7.2078  -5.5806  -5.5779  -5.5613  -5.5539
    -5.5250  -5.5154  -5.4799  -5.4705  -5.4409  -5.4340  -5.4166  -5.4141
     0.1963   0.1970   0.2196   0.2211   0.2473   0.2482   0.8943   0.8964
     0.9440   0.9480   0.9911   0.9931   3.1298   3.1348   3.1935   3.2051
     3.3213   3.3298   3.9602   3.9710   4.1040   4.1216   4.1594   4.1751
     4.1922   4.1975   4.2709   4.2917   4.3116   4.3139   4.4496   4.4688
     4.5006   4.5389   4.5766   4.5871   4.9045   4.9072   4.9101   4.9164
     5.0473   5.0486   7.7222   7.7277   7.7291   7.7429   7.9347   8.0139

          k = 0.0000 0.5774 0.0198 ( 74602 PWs)   bands (ev):

    -8.4059  -8.4057  -8.4042  -8.4033  -8.4031  -8.4025  -8.3791  -8.3785
    -8.3771  -8.3759  -8.3752  -8.3746  -8.2773  -8.2773  -8.2770  -8.2769
    -8.2767  -8.2767  -8.2261  -8.2261  -8.2259  -8.2258  -8.2257  -8.2256
    -7.6591  -7.6587  -7.6563  -7.6549  -7.6546  -7.6536  -7.5557  -7.5552
    -7.5532  -7.5519  -7.5516  -7.5507  -7.4516  -7.4516  -7.4513  -7.4513
    -7.4512  -7.4512  -7.3547  -7.3547  -7.3544  -7.3544  -7.3543  -7.3542
    -7.3162  -7.3161  -7.3157  -7.3157  -7.3155  -7.3155  -7.2086  -7.2085
    -7.2083  -7.2081  -7.2079  -7.2078  -5.5778  -5.5737  -5.5680  -5.5616
    -5.5146  -5.5056  -5.4898  -5.4809  -5.4331  -5.4271  -5.4208  -5.4171
     0.2003   0.2013   0.2122   0.2136   0.2509   0.2514   0.8886   0.8897
     0.9583   0.9622   0.9826   0.9853   3.1380   3.1452   3.1695   3.1801
     3.3452   3.3500   3.9345   3.9405   4.1272   4.1462   4.1541   4.1737
     4.1847   4.1872   4.2886   4.3061   4.3089   4.3137   4.4580   4.4819
     4.4870   4.5228   4.5862   4.5913   4.8888   4.8921   4.8992   4.9002
     5.0694   5.0699   7.6853   7.6875   7.7768   7.7991   7.8986   7.9528

          k = 0.0000 0.5774-0.0000 ( 74596 PWs)   bands (ev):

    -8.4058  -8.4058  -8.4037  -8.4037  -8.4028  -8.4028  -8.3788  -8.3788
    -8.3765  -8.3765  -8.3748  -8.3748  -8.2773  -8.2773  -8.2769  -8.2769
    -8.2767  -8.2767  -8.2261  -8.2261  -8.2258  -8.2258  -8.2257  -8.2257
    -7.6590  -7.6590  -7.6556  -7.6556  -7.6541  -7.6541  -7.5555  -7.5555
    -7.5525  -7.5525  -7.5511  -7.5511  -7.4516  -7.4516  -7.4513  -7.4513
    -7.4512  -7.4512  -7.3547  -7.3547  -7.3544  -7.3544  -7.3543  -7.3543
    -7.3162  -7.3162  -7.3157  -7.3157  -7.3155  -7.3155  -7.2086  -7.2086
    -7.2082  -7.2082  -7.2079  -7.2079  -5.5735  -5.5735  -5.5683  -5.5683
    -5.5050  -5.5050  -5.4905  -5.4905  -5.4263  -5.4263  -5.4215  -5.4215
     0.2057   0.2057   0.2069   0.2069   0.2524   0.2524   0.8870   0.8870
     0.9714   0.9714   0.9748   0.9748   3.1511   3.1511   3.1602   3.1602
     3.3558   3.3558   3.9271   3.9271   4.1438   4.1438   4.1639   4.1639
     4.1830   4.1830   4.2996   4.2996   4.3145   4.3145   4.4682   4.4682
     4.5054   4.5054   4.5911   4.5911   4.8848   4.8848   4.8947   4.8947
     5.0773   5.0773   7.6731   7.6731   7.8370   7.8370   7.8712   7.8712

          k = 0.3333 0.5773 0.0792 ( 74610 PWs)   bands (ev):

    -8.4216  -8.4213  -8.4213  -8.4037  -8.4034  -8.4034  -8.3935  -8.3932
    -8.3932  -8.3818  -8.3815  -8.3815  -8.3075  -8.3071  -8.3071  -8.2373
    -8.2370  -8.2370  -8.2155  -8.2152  -8.2152  -8.2076  -8.2073  -8.2073
    -7.7491  -7.7488  -7.7488  -7.5895  -7.5893  -7.5892  -7.5880  -7.5877
    -7.5877  -7.5851  -7.5848  -7.5847  -7.4689  -7.4686  -7.4686  -7.3853
    -7.3851  -7.3850  -7.3642  -7.3639  -7.3639  -7.3628  -7.3625  -7.3625
    -7.3260  -7.3257  -7.3257  -7.3195  -7.3193  -7.3192  -7.2122  -7.2120
    -7.2120  -7.2021  -7.2018  -7.2018  -5.3863  -5.3861  -5.3861  -5.3608
    -5.3607  -5.3606  -5.3114  -5.3113  -5.3113  -5.3004  -5.3002  -5.3002
     0.3569   0.3572   0.3572   0.4192   0.4195   0.4195   1.0829   1.0831
     1.0831   1.1817   1.1818   1.1819   2.6168   2.6170   2.6171   2.6690
     2.6692   2.6692   2.9059   2.9061   2.9061   2.9891   2.9893   2.9893
     3.9749   3.9750   3.9751   4.0337   4.0338   4.0338   4.3988   4.3988
     4.3988   4.4337   4.4337   4.4337   4.8288   4.8290   4.8291   4.8904
     4.8906   4.8907   8.2396   8.2398   8.2398   8.2680   8.2681   8.2681

          k = 0.3333 0.5773 0.0594 ( 74562 PWs)   bands (ev):

    -8.4216  -8.4213  -8.4213  -8.4037  -8.4034  -8.4034  -8.3935  -8.3932
    -8.3932  -8.3818  -8.3815  -8.3815  -8.3075  -8.3071  -8.3071  -8.2373
    -8.2370  -8.2370  -8.2155  -8.2152  -8.2152  -8.2076  -8.2073  -8.2073
    -7.7491  -7.7488  -7.7488  -7.5895  -7.5893  -7.5892  -7.5880  -7.5877
    -7.5877  -7.5851  -7.5848  -7.5847  -7.4689  -7.4686  -7.4686  -7.3853
    -7.3851  -7.3850  -7.3642  -7.3639  -7.3639  -7.3628  -7.3625  -7.3625
    -7.3260  -7.3257  -7.3257  -7.3195  -7.3193  -7.3192  -7.2122  -7.2120
    -7.2120  -7.2021  -7.2018  -7.2018  -5.3863  -5.3861  -5.3861  -5.3608
    -5.3607  -5.3606  -5.3114  -5.3113  -5.3113  -5.3004  -5.3002  -5.3002
     0.3569   0.3572   0.3572   0.4192   0.4195   0.4195   1.0829   1.0831
     1.0831   1.1817   1.1818   1.1819   2.6168   2.6170   2.6170   2.6688
     2.6691   2.6691   2.9061   2.9063   2.9063   2.9893   2.9894   2.9894
     3.9740   3.9741   3.9742   4.0330   4.0331   4.0331   4.3991   4.3992
     4.3992   4.4363   4.4363   4.4363   4.8277   4.8279   4.8280   4.8898
     4.8900   4.8901   8.2424   8.2425   8.2425   8.2708   8.2710   8.2710

          k = 0.3333 0.5773 0.0396 ( 74616 PWs)   bands (ev):

    -8.4216  -8.4213  -8.4213  -8.4037  -8.4034  -8.4034  -8.3935  -8.3932
    -8.3932  -8.3818  -8.3815  -8.3815  -8.3075  -8.3071  -8.3071  -8.2373
    -8.2370  -8.2370  -8.2155  -8.2152  -8.2152  -8.2076  -8.2073  -8.2073
    -7.7491  -7.7488  -7.7488  -7.5895  -7.5893  -7.5892  -7.5880  -7.5877
    -7.5877  -7.5851  -7.5848  -7.5847  -7.4689  -7.4686  -7.4686  -7.3853
    -7.3851  -7.3850  -7.3642  -7.3639  -7.3639  -7.3628  -7.3625  -7.3625
    -7.3260  -7.3257  -7.3257  -7.3195  -7.3193  -7.3192  -7.2122  -7.2120
    -7.2120  -7.2021  -7.2018  -7.2018  -5.3863  -5.3861  -5.3861  -5.3608
    -5.3607  -5.3606  -5.3114  -5.3113  -5.3113  -5.3004  -5.3003  -5.3002
     0.3569   0.3572   0.3572   0.4192   0.4195   0.4195   1.0829   1.0831
     1.0831   1.1817   1.1819   1.1819   2.6167   2.6169   2.6169   2.6685
     2.6687   2.6687   2.9067   2.9068   2.9069   2.9896   2.9898   2.9898
     3.9720   3.9721   3.9721   4.0312   4.0314   4.0314   4.4002   4.4002
     4.4002   4.4423   4.4424   4.4424   4.8250   4.8251   4.8252   4.8884
     4.8885   4.8886   8.2491   8.2493   8.2493   8.2780   8.2782   8.2782

          k = 0.3333 0.5773 0.0198 ( 74610 PWs)   bands (ev):

    -8.4216  -8.4213  -8.4213  -8.4037  -8.4034  -8.4034  -8.3935  -8.3932
    -8.3932  -8.3818  -8.3815  -8.3815  -8.3075  -8.3071  -8.3071  -8.2373
    -8.2370  -8.2370  -8.2155  -8.2152  -8.2152  -8.2076  -8.2073  -8.2073
    -7.7491  -7.7488  -7.7488  -7.5895  -7.5893  -7.5892  -7.5880  -7.5877
    -7.5877  -7.5851  -7.5848  -7.5847  -7.4689  -7.4686  -7.4686  -7.3853
    -7.3851  -7.3850  -7.3642  -7.3639  -7.3639  -7.3628  -7.3625  -7.3625
    -7.3260  -7.3257  -7.3257  -7.3195  -7.3193  -7.3192  -7.2122  -7.2120
    -7.2120  -7.2021  -7.2018  -7.2018  -5.3863  -5.3861  -5.3861  -5.3608
    -5.3607  -5.3606  -5.3114  -5.3113  -5.3113  -5.3004  -5.3003  -5.3002
     0.3569   0.3572   0.3572   0.4192   0.4195   0.4195   1.0829   1.0831
     1.0831   1.1817   1.1819   1.1819   2.6166   2.6167   2.6168   2.6682
     2.6684   2.6684   2.9072   2.9074   2.9074   2.9899   2.9901   2.9901
     3.9700   3.9701   3.9701   4.0295   4.0296   4.0297   4.4015   4.4015
     4.4016   4.4482   4.4482   4.4482   4.8222   4.8223   4.8224   4.8869
     4.8871   4.8871   8.2562   8.2563   8.2563   8.2855   8.2856   8.2856

          k = 0.3333 0.5773-0.0000 ( 74661 PWs)   bands (ev):

    -8.4216  -8.4213  -8.4213  -8.4037  -8.4034  -8.4034  -8.3935  -8.3932
    -8.3932  -8.3818  -8.3815  -8.3815  -8.3075  -8.3071  -8.3071  -8.2373
    -8.2370  -8.2370  -8.2155  -8.2152  -8.2152  -8.2076  -8.2073  -8.2073
    -7.7491  -7.7488  -7.7488  -7.5895  -7.5893  -7.5892  -7.5880  -7.5877
    -7.5877  -7.5851  -7.5848  -7.5847  -7.4689  -7.4686  -7.4686  -7.3853
    -7.3851  -7.3850  -7.3642  -7.3639  -7.3639  -7.3628  -7.3625  -7.3625
    -7.3260  -7.3257  -7.3257  -7.3195  -7.3193  -7.3192  -7.2122  -7.2120
    -7.2120  -7.2021  -7.2018  -7.2018  -5.3863  -5.3861  -5.3861  -5.3608
    -5.3607  -5.3606  -5.3114  -5.3113  -5.3113  -5.3004  -5.3003  -5.3002
     0.3569   0.3572   0.3572   0.4192   0.4195   0.4195   1.0829   1.0831
     1.0831   1.1817   1.1819   1.1819   2.6165   2.6167   2.6167   2.6681
     2.6683   2.6683   2.9075   2.9076   2.9076   2.9901   2.9902   2.9902
     3.9691   3.9692   3.9693   4.0288   4.0289   4.0290   4.4021   4.4021
     4.4022   4.4505   4.4506   4.4506   4.8210   4.8212   4.8212   4.8863
     4.8865   4.8865   8.2591   8.2593   8.2593   8.2887   8.2888   8.2888

     Writing output data file InSegamma.save
 
     init_run     :      0.79s CPU      1.16s WALL (       1 calls)
     electrons    :   2179.58s CPU   2277.63s WALL (       1 calls)

     Called by init_run:
     wfcinit      :      0.00s CPU      0.00s WALL (       1 calls)
     wfcinit:atom :      0.58s CPU      0.85s WALL (     160 calls)
     wfcinit:wfcr :    130.97s CPU    135.95s WALL (     160 calls)
     potinit      :      0.11s CPU      0.18s WALL (       1 calls)

     Called by electrons:
     c_bands      :   2179.58s CPU   2277.62s WALL (       1 calls)
     v_of_rho     :      0.02s CPU      0.02s WALL (       1 calls)
     v_h          :      0.00s CPU      0.00s WALL (       1 calls)
     v_xc         :      0.02s CPU      0.02s WALL (       1 calls)

     Called by c_bands:
     init_us_2    :      0.55s CPU      0.61s WALL (     160 calls)
     cegterg      :   2007.65s CPU   2097.09s WALL (     289 calls)

     Called by sum_band:

     Called by *egterg:
     h_psi        :   1338.70s CPU   1381.46s WALL (    4146 calls)
     g_psi        :      7.94s CPU      7.94s WALL (    3697 calls)
     cdiaghg      :    275.62s CPU    303.46s WALL (    3857 calls)
     cegterg:over :    208.49s CPU    214.88s WALL (    3697 calls)
     cegterg:upda :    184.18s CPU    194.87s WALL (    3697 calls)
     cegterg:last :     86.71s CPU     88.99s WALL (     784 calls)
     cdiaghg:chol :     14.73s CPU     14.75s WALL (    3857 calls)
     cdiaghg:inve :     13.23s CPU     13.25s WALL (    3857 calls)
     cdiaghg:para :     49.73s CPU     72.25s WALL (    7714 calls)

     Called by h_psi:
     h_psi:pot    :   1330.14s CPU   1372.88s WALL (    4146 calls)
     h_psi:calbec :    146.01s CPU    149.77s WALL (    4146 calls)
     vloc_psi     :   1037.30s CPU   1071.83s WALL (    4146 calls)
     add_vuspsi   :    146.81s CPU    151.26s WALL (    4146 calls)

     General routines
     calbec       :    146.00s CPU    149.76s WALL (    4146 calls)
     fft          :      0.02s CPU      0.02s WALL (      13 calls)
     fftw         :    992.44s CPU   1026.94s WALL ( 1215988 calls)
     davcio       :      0.08s CPU      2.70s WALL (     160 calls)
 
     Parallel routines
     fft_scatter  :    602.04s CPU    613.09s WALL ( 1216001 calls)
 
     PWSCF        : 36m22.16s CPU    38m 3.53s WALL

 
   This run was terminated on:  15:30:36   7Apr2022            

=------------------------------------------------------------------------------=
   JOB DONE.
=------------------------------------------------------------------------------=
