
     Program PWSCF v.6.1 (svn rev. 13369) starts on  6Apr2022 at 20:55:49 

     This program is part of the open-source Quantum ESPRESSO suite
     for quantum simulation of materials; please cite
         "P. Giannozzi et al., J. Phys.:Condens. Matter 21 395502 (2009);
          URL http://www.quantum-espresso.org", 
     in publications or presentations arising from this work. More details at
     http://www.quantum-espresso.org/quote

     Parallel version (MPI), running on    48 processors
     R & G space division:  proc/nbgrp/npool/nimage =      48
     Reading input from InTegamma_relax.in
Warning: card &IONS ignored
Warning: card / ignored
Warning: card &CELL ignored
Warning: card     CELL_DOFREE='ALL' ignored
Warning: card / ignored

     Current dimensions of program PWSCF are:
     Max number of different atomic species (ntypx) = 10
     Max number of k-points (npk) =  40000
     Max angular momentum in pseudopotentials (lmaxx) =  3

     IMPORTANT: XC functional enforced from input :
     Exchange-correlation      = SLA+PW+PSX+PSC ( 1  4 10  8 0 0)
     Any further DFT definition will be discarded
     Please, verify this is what you really want


     Subspace diagonalization in iterative solution of the eigenvalue problem:
     one sub-group per band group will be used
     scalapack distributed-memory algorithm (size of sub-group:  4*  4 procs)

 
     Parallelization info
     --------------------
     sticks:   dense  smooth     PW     G-vecs:    dense   smooth      PW
     Min          56      56     15                15816    15816    2229
     Max          57      57     16                15873    15873    2272
     Sum        2725    2725    745               760893   760893  107893
 


     bravais-lattice index     =            0
     lattice parameter (alat)  =       8.1435  a.u.
     unit-cell volume          =    3066.7167 (a.u.)^3
     number of atoms/cell      =           12
     number of atomic types    =            2
     number of electrons       =       174.00
     number of Kohn-Sham states=          174
     kinetic-energy cutoff     =     150.0000  Ry
     charge density cutoff     =     600.0000  Ry
     convergence threshold     =      7.0E-10
     mixing beta               =       0.7000
     number of iterations used =            8  plain     mixing
     Exchange-correlation      = SLA+PW+PSX+PSC ( 1  4 10  8 0 0)
     Non magnetic calculation with spin-orbit


     celldm(1)=   8.143498  celldm(2)=   0.000000  celldm(3)=   0.000000
     celldm(4)=   0.000000  celldm(5)=   0.000000  celldm(6)=   0.000000

     crystal axes: (cart. coord. in units of alat)
               a(1) = (   1.000000   0.000000   0.000000 )  
               a(2) = (  -0.500000   0.866025   0.000000 )  
               a(3) = (   0.000000   0.000000   6.557072 )  

     reciprocal axes: (cart. coord. in units 2 pi/alat)
               b(1) = (  1.000000  0.577350 -0.000000 )  
               b(2) = (  0.000000  1.154701 -0.000000 )  
               b(3) = (  0.000000  0.000000  0.152507 )  


     PseudoPot. # 1 for In read from file:
     /home/mclaro/pseudo/ONCVPSP/sg15/In_ONCV_PBE_fr.upf
     MD5 check sum: eedf9510f5d1e34334b25b4623707d2f
     Pseudo is Norm-conserving, Zval = 13.0
     Generated using ONCVPSP code by D. R. Hamann
     Using radial grid of 1986 points, 10 beta functions with: 
                l(1) =   0
                l(2) =   0
                l(3) =   1
                l(4) =   1
                l(5) =   1
                l(6) =   1
                l(7) =   2
                l(8) =   2
                l(9) =   2
               l(10) =   2

     PseudoPot. # 2 for Te read from file:
     /home/mclaro/pseudo/ONCVPSP/sg15/Te_ONCV_PBE_fr.upf
     MD5 check sum: fbe956063e00beff679dd20f3414d505
     Pseudo is Norm-conserving, Zval = 16.0
     Generated using ONCVPSP code by D. R. Hamann
     Using radial grid of 1324 points, 10 beta functions with: 
                l(1) =   0
                l(2) =   0
                l(3) =   1
                l(4) =   1
                l(5) =   1
                l(6) =   1
                l(7) =   2
                l(8) =   2
                l(9) =   2
               l(10) =   2

     atomic species   valence    mass     pseudopotential
        In            13.00   114.81800     In( 1.00)
        Te            16.00   127.60000     Te( 1.00)

      6 Sym. Ops. (no inversion) found


                                    s                        frac. trans.

      isym =  1     identity                                     

 cryst.   s( 1) = (     1          0          0      )
                  (     0          1          0      )
                  (     0          0          1      )

 cart.    s( 1) = (  1.0000000  0.0000000 -0.0000000 )
                  (  0.0000000  1.0000000 -0.0000000 )
                  (  0.0000000  0.0000000  1.0000000 )


      isym =  2     120 deg rotation - cryst. axis [0,0,1]       

 cryst.   s( 2) = (     0          1          0      )
                  (    -1         -1          0      )
                  (     0          0          1      )

 cart.    s( 2) = ( -0.5000000 -0.8660254  0.0000000 )
                  (  0.8660254 -0.5000000  0.0000000 )
                  (  0.0000000  0.0000000  1.0000000 )


      isym =  3     120 deg rotation - cryst. axis [0,0,-1]      

 cryst.   s( 3) = (    -1         -1          0      )
                  (     1          0          0      )
                  (     0          0          1      )

 cart.    s( 3) = ( -0.5000000  0.8660254  0.0000000 )
                  ( -0.8660254 -0.5000000  0.0000000 )
                  (  0.0000000  0.0000000  1.0000000 )


      isym =  4     inv. 180 deg rotation - cart. axis [1,0,0]   

 cryst.   s( 4) = (    -1          0          0      )
                  (     1          1          0      )
                  (     0          0          1      )

 cart.    s( 4) = ( -1.0000000  0.0000000  0.0000000 )
                  (  0.0000000  1.0000000 -0.0000000 )
                  (  0.0000000  0.0000000  1.0000000 )


      isym =  5     inv. 180 deg rotation - cryst. axis [0,1,0]  

 cryst.   s( 5) = (     1          1          0      )
                  (     0         -1          0      )
                  (     0          0          1      )

 cart.    s( 5) = (  0.5000000  0.8660254 -0.0000000 )
                  (  0.8660254 -0.5000000  0.0000000 )
                  (  0.0000000  0.0000000  1.0000000 )


      isym =  6     inv. 180 deg rotation - cryst. axis [1,1,0]  

 cryst.   s( 6) = (     0         -1          0      )
                  (    -1          0          0      )
                  (     0          0          1      )

 cart.    s( 6) = (  0.5000000 -0.8660254  0.0000000 )
                  ( -0.8660254 -0.5000000  0.0000000 )
                  (  0.0000000  0.0000000  1.0000000 )


   Cartesian axes

     site n.     atom                  positions (alat units)
         1           Te  tau(   1) = (   0.0000000   0.0000000   1.4925396  )
         2           Te  tau(   2) = (  -0.0000000   0.5773503   0.6917672  )
         3           Te  tau(   3) = (   0.5000000   0.2886751   3.6782556  )
         4           Te  tau(   4) = (   0.0000000   0.0000000   2.8773701  )
         5           Te  tau(   5) = (  -0.0000000   0.5773503   5.8639701  )
         6           Te  tau(   6) = (   0.5000000   0.2886751   5.0631297  )
         7           In  tau(   7) = (   0.5000000   0.2886751   1.8370374  )
         8           In  tau(   8) = (   0.0000000   0.0000000   0.3456795  )
         9           In  tau(   9) = (  -0.0000000   0.5773503   4.0227610  )
        10           In  tau(  10) = (   0.5000000   0.2886751   2.5312973  )
        11           In  tau(  11) = (   0.0000000   0.0000000   6.2084730  )
        12           In  tau(  12) = (  -0.0000000   0.5773503   4.7170387  )

   Crystallographic axes

     site n.     atom                  positions (cryst. coord.)
         1           Te  tau(   1) = ( -0.0000000  0.0000000  0.2276229  )
         2           Te  tau(   2) = (  0.3333333  0.6666667  0.1054994  )
         3           Te  tau(   3) = (  0.6666667  0.3333333  0.5609601  )
         4           Te  tau(   4) = (  0.0000000  0.0000000  0.4388193  )
         5           Te  tau(   5) = (  0.3333333  0.6666667  0.8942970  )
         6           Te  tau(   6) = (  0.6666667  0.3333333  0.7721632  )
         7           In  tau(   7) = (  0.6666667  0.3333333  0.2801612  )
         8           In  tau(   8) = (  0.0000000  0.0000000  0.0527186  )
         9           In  tau(   9) = (  0.3333333  0.6666667  0.6134996  )
        10           In  tau(  10) = (  0.6666667  0.3333333  0.3860408  )
        11           In  tau(  11) = ( -0.0000000  0.0000000  0.9468361  )
        12           In  tau(  12) = (  0.3333333  0.6666667  0.7193818  )

     number of k points=   119
                       cart. coord. in units 2pi/alat
        k(    1) = (   0.0000000   0.0000000   0.0000000), wk =   0.0008889
        k(    2) = (   0.0000000   0.0000000   0.0305014), wk =   0.0017778
        k(    3) = (   0.0000000   0.0000000   0.0610028), wk =   0.0017778
        k(    4) = (   0.0000000   0.0769800  -0.0000000), wk =   0.0053333
        k(    5) = (   0.0000000   0.0769800   0.0305014), wk =   0.0053333
        k(    6) = (   0.0000000   0.0769800   0.0610028), wk =   0.0053333
        k(    7) = (   0.0000000   0.1539601  -0.0000000), wk =   0.0053333
        k(    8) = (   0.0000000   0.1539601   0.0305014), wk =   0.0053333
        k(    9) = (   0.0000000   0.1539601   0.0610028), wk =   0.0053333
        k(   10) = (   0.0000000   0.2309401  -0.0000000), wk =   0.0053333
        k(   11) = (   0.0000000   0.2309401   0.0305014), wk =   0.0053333
        k(   12) = (   0.0000000   0.2309401   0.0610028), wk =   0.0053333
        k(   13) = (   0.0000000   0.3079201  -0.0000000), wk =   0.0053333
        k(   14) = (   0.0000000   0.3079201   0.0305014), wk =   0.0053333
        k(   15) = (   0.0000000   0.3079201   0.0610028), wk =   0.0053333
        k(   16) = (   0.0000000   0.3849002  -0.0000000), wk =   0.0053333
        k(   17) = (   0.0000000   0.3849002   0.0305014), wk =   0.0053333
        k(   18) = (   0.0000000   0.3849002   0.0610028), wk =   0.0053333
        k(   19) = (   0.0000000   0.4618802  -0.0000000), wk =   0.0053333
        k(   20) = (   0.0000000   0.4618802   0.0305014), wk =   0.0053333
        k(   21) = (   0.0000000   0.4618802   0.0610028), wk =   0.0053333
        k(   22) = (   0.0000000   0.5388603  -0.0000000), wk =   0.0053333
        k(   23) = (   0.0000000   0.5388603   0.0305014), wk =   0.0053333
        k(   24) = (   0.0000000   0.5388603   0.0610028), wk =   0.0053333
        k(   25) = (   0.0666667   0.1154701  -0.0000000), wk =   0.0053333
        k(   26) = (   0.0666667   0.1154701   0.0305014), wk =   0.0106667
        k(   27) = (   0.0666667   0.1154701   0.0610028), wk =   0.0106667
        k(   28) = (   0.0666667   0.1924501  -0.0000000), wk =   0.0106667
        k(   29) = (   0.0666667   0.1924501   0.0305014), wk =   0.0106667
        k(   30) = (   0.0666667   0.1924501   0.0610028), wk =   0.0106667
        k(   31) = (   0.0666667   0.2694301  -0.0000000), wk =   0.0106667
        k(   32) = (   0.0666667   0.2694301   0.0305014), wk =   0.0106667
        k(   33) = (   0.0666667   0.2694301   0.0610028), wk =   0.0106667
        k(   34) = (   0.0666667   0.3464102  -0.0000000), wk =   0.0106667
        k(   35) = (   0.0666667   0.3464102   0.0305014), wk =   0.0106667
        k(   36) = (   0.0666667   0.3464102   0.0610028), wk =   0.0106667
        k(   37) = (   0.0666667   0.4233902  -0.0000000), wk =   0.0106667
        k(   38) = (   0.0666667   0.4233902   0.0305014), wk =   0.0106667
        k(   39) = (   0.0666667   0.4233902   0.0610028), wk =   0.0106667
        k(   40) = (   0.0666667   0.5003702  -0.0000000), wk =   0.0106667
        k(   41) = (   0.0666667   0.5003702   0.0305014), wk =   0.0106667
        k(   42) = (   0.0666667   0.5003702   0.0610028), wk =   0.0106667
        k(   43) = (   0.0666667   0.5773503  -0.0000000), wk =   0.0053333
        k(   44) = (   0.0666667   0.5773503   0.0305014), wk =   0.0106667
        k(   45) = (   0.0666667   0.5773503   0.0610028), wk =   0.0106667
        k(   46) = (   0.1333333   0.2309401  -0.0000000), wk =   0.0053333
        k(   47) = (   0.1333333   0.2309401   0.0305014), wk =   0.0106667
        k(   48) = (   0.1333333   0.2309401   0.0610028), wk =   0.0106667
        k(   49) = (   0.1333333   0.3079201  -0.0000000), wk =   0.0106667
        k(   50) = (   0.1333333   0.3079201   0.0305014), wk =   0.0106667
        k(   51) = (   0.1333333   0.3079201   0.0610028), wk =   0.0106667
        k(   52) = (   0.1333333   0.3849002  -0.0000000), wk =   0.0106667
        k(   53) = (   0.1333333   0.3849002   0.0305014), wk =   0.0106667
        k(   54) = (   0.1333333   0.3849002   0.0610028), wk =   0.0106667
        k(   55) = (   0.1333333   0.4618802  -0.0000000), wk =   0.0106667
        k(   56) = (   0.1333333   0.4618802   0.0305014), wk =   0.0106667
        k(   57) = (   0.1333333   0.4618802   0.0610028), wk =   0.0106667
        k(   58) = (   0.1333333   0.5388603  -0.0000000), wk =   0.0106667
        k(   59) = (   0.1333333   0.5388603   0.0305014), wk =   0.0106667
        k(   60) = (   0.1333333   0.5388603   0.0610028), wk =   0.0106667
        k(   61) = (   0.2000000   0.3464102  -0.0000000), wk =   0.0053333
        k(   62) = (   0.2000000   0.3464102   0.0305014), wk =   0.0106667
        k(   63) = (   0.2000000   0.3464102   0.0610028), wk =   0.0106667
        k(   64) = (   0.2000000   0.4233902  -0.0000000), wk =   0.0106667
        k(   65) = (   0.2000000   0.4233902   0.0305014), wk =   0.0106667
        k(   66) = (   0.2000000   0.4233902   0.0610028), wk =   0.0106667
        k(   67) = (   0.2000000   0.5003702  -0.0000000), wk =   0.0106667
        k(   68) = (   0.2000000   0.5003702   0.0305014), wk =   0.0106667
        k(   69) = (   0.2000000   0.5003702   0.0610028), wk =   0.0106667
        k(   70) = (   0.2000000   0.5773503  -0.0000000), wk =   0.0053333
        k(   71) = (   0.2000000   0.5773503   0.0305014), wk =   0.0106667
        k(   72) = (   0.2000000   0.5773503   0.0610028), wk =   0.0106667
        k(   73) = (   0.2666667   0.4618802  -0.0000000), wk =   0.0053333
        k(   74) = (   0.2666667   0.4618802   0.0305014), wk =   0.0106667
        k(   75) = (   0.2666667   0.4618802   0.0610028), wk =   0.0106667
        k(   76) = (   0.2666667   0.5388603  -0.0000000), wk =   0.0106667
        k(   77) = (   0.2666667   0.5388603   0.0305014), wk =   0.0106667
        k(   78) = (   0.2666667   0.5388603   0.0610028), wk =   0.0106667
        k(   79) = (   0.3333333   0.5773503  -0.0000000), wk =   0.0017778
        k(   80) = (   0.3333333   0.5773503   0.0305014), wk =   0.0035556
        k(   81) = (   0.3333333   0.5773503   0.0610028), wk =   0.0035556
        k(   82) = (   0.0000000  -0.0769800   0.0305014), wk =   0.0053333
        k(   83) = (   0.0000000  -0.0769800   0.0610028), wk =   0.0053333
        k(   84) = (   0.0000000  -0.1539601   0.0305014), wk =   0.0053333
        k(   85) = (   0.0000000  -0.1539601   0.0610028), wk =   0.0053333
        k(   86) = (   0.0000000  -0.2309401   0.0305014), wk =   0.0053333
        k(   87) = (   0.0000000  -0.2309401   0.0610028), wk =   0.0053333
        k(   88) = (   0.0000000  -0.3079201   0.0305014), wk =   0.0053333
        k(   89) = (   0.0000000  -0.3079201   0.0610028), wk =   0.0053333
        k(   90) = (   0.0000000  -0.3849002   0.0305014), wk =   0.0053333
        k(   91) = (   0.0000000  -0.3849002   0.0610028), wk =   0.0053333
        k(   92) = (   0.0000000  -0.4618802   0.0305014), wk =   0.0053333
        k(   93) = (   0.0000000  -0.4618802   0.0610028), wk =   0.0053333
        k(   94) = (   0.0000000  -0.5388603   0.0305014), wk =   0.0053333
        k(   95) = (   0.0000000  -0.5388603   0.0610028), wk =   0.0053333
        k(   96) = (  -0.0666667  -0.1924501   0.0305014), wk =   0.0106667
        k(   97) = (  -0.0666667  -0.1924501   0.0610028), wk =   0.0106667
        k(   98) = (  -0.0666667  -0.2694301   0.0305014), wk =   0.0106667
        k(   99) = (  -0.0666667  -0.2694301   0.0610028), wk =   0.0106667
        k(  100) = (  -0.0666667  -0.3464102   0.0305014), wk =   0.0106667
        k(  101) = (  -0.0666667  -0.3464102   0.0610028), wk =   0.0106667
        k(  102) = (  -0.0666667  -0.4233902   0.0305014), wk =   0.0106667
        k(  103) = (  -0.0666667  -0.4233902   0.0610028), wk =   0.0106667
        k(  104) = (  -0.0666667  -0.5003702   0.0305014), wk =   0.0106667
        k(  105) = (  -0.0666667  -0.5003702   0.0610028), wk =   0.0106667
        k(  106) = (  -0.1333333  -0.3079201   0.0305014), wk =   0.0106667
        k(  107) = (  -0.1333333  -0.3079201   0.0610028), wk =   0.0106667
        k(  108) = (  -0.1333333  -0.3849002   0.0305014), wk =   0.0106667
        k(  109) = (  -0.1333333  -0.3849002   0.0610028), wk =   0.0106667
        k(  110) = (  -0.1333333  -0.4618802   0.0305014), wk =   0.0106667
        k(  111) = (  -0.1333333  -0.4618802   0.0610028), wk =   0.0106667
        k(  112) = (  -0.1333333  -0.5388603   0.0305014), wk =   0.0106667
        k(  113) = (  -0.1333333  -0.5388603   0.0610028), wk =   0.0106667
        k(  114) = (  -0.2000000  -0.4233902   0.0305014), wk =   0.0106667
        k(  115) = (  -0.2000000  -0.4233902   0.0610028), wk =   0.0106667
        k(  116) = (  -0.2000000  -0.5003702   0.0305014), wk =   0.0106667
        k(  117) = (  -0.2000000  -0.5003702   0.0610028), wk =   0.0106667
        k(  118) = (  -0.2666667  -0.5388603   0.0305014), wk =   0.0106667
        k(  119) = (  -0.2666667  -0.5388603   0.0610028), wk =   0.0106667

                       cryst. coord.
        k(    1) = (   0.0000000   0.0000000   0.0000000), wk =   0.0008889
        k(    2) = (   0.0000000   0.0000000   0.2000000), wk =   0.0017778
        k(    3) = (   0.0000000   0.0000000   0.4000000), wk =   0.0017778
        k(    4) = (   0.0000000   0.0666667   0.0000000), wk =   0.0053333
        k(    5) = (   0.0000000   0.0666667   0.2000000), wk =   0.0053333
        k(    6) = (   0.0000000   0.0666667   0.4000000), wk =   0.0053333
        k(    7) = (   0.0000000   0.1333333   0.0000000), wk =   0.0053333
        k(    8) = (   0.0000000   0.1333333   0.2000000), wk =   0.0053333
        k(    9) = (   0.0000000   0.1333333   0.4000000), wk =   0.0053333
        k(   10) = (   0.0000000   0.2000000   0.0000000), wk =   0.0053333
        k(   11) = (   0.0000000   0.2000000   0.2000000), wk =   0.0053333
        k(   12) = (   0.0000000   0.2000000   0.4000000), wk =   0.0053333
        k(   13) = (   0.0000000   0.2666667   0.0000000), wk =   0.0053333
        k(   14) = (   0.0000000   0.2666667   0.2000000), wk =   0.0053333
        k(   15) = (   0.0000000   0.2666667   0.4000000), wk =   0.0053333
        k(   16) = (   0.0000000   0.3333333   0.0000000), wk =   0.0053333
        k(   17) = (   0.0000000   0.3333333   0.2000000), wk =   0.0053333
        k(   18) = (   0.0000000   0.3333333   0.4000000), wk =   0.0053333
        k(   19) = (   0.0000000   0.4000000   0.0000000), wk =   0.0053333
        k(   20) = (   0.0000000   0.4000000   0.2000000), wk =   0.0053333
        k(   21) = (   0.0000000   0.4000000   0.4000000), wk =   0.0053333
        k(   22) = (   0.0000000   0.4666667   0.0000000), wk =   0.0053333
        k(   23) = (   0.0000000   0.4666667   0.2000000), wk =   0.0053333
        k(   24) = (   0.0000000   0.4666667   0.4000000), wk =   0.0053333
        k(   25) = (   0.0666667   0.0666667   0.0000000), wk =   0.0053333
        k(   26) = (   0.0666667   0.0666667   0.2000000), wk =   0.0106667
        k(   27) = (   0.0666667   0.0666667   0.4000000), wk =   0.0106667
        k(   28) = (   0.0666667   0.1333333   0.0000000), wk =   0.0106667
        k(   29) = (   0.0666667   0.1333333   0.2000000), wk =   0.0106667
        k(   30) = (   0.0666667   0.1333333   0.4000000), wk =   0.0106667
        k(   31) = (   0.0666667   0.2000000  -0.0000000), wk =   0.0106667
        k(   32) = (   0.0666667   0.2000000   0.2000000), wk =   0.0106667
        k(   33) = (   0.0666667   0.2000000   0.4000000), wk =   0.0106667
        k(   34) = (   0.0666667   0.2666667   0.0000000), wk =   0.0106667
        k(   35) = (   0.0666667   0.2666667   0.2000000), wk =   0.0106667
        k(   36) = (   0.0666667   0.2666667   0.4000000), wk =   0.0106667
        k(   37) = (   0.0666667   0.3333333   0.0000000), wk =   0.0106667
        k(   38) = (   0.0666667   0.3333333   0.2000000), wk =   0.0106667
        k(   39) = (   0.0666667   0.3333333   0.4000000), wk =   0.0106667
        k(   40) = (   0.0666667   0.4000000   0.0000000), wk =   0.0106667
        k(   41) = (   0.0666667   0.4000000   0.2000000), wk =   0.0106667
        k(   42) = (   0.0666667   0.4000000   0.4000000), wk =   0.0106667
        k(   43) = (   0.0666667   0.4666667  -0.0000000), wk =   0.0053333
        k(   44) = (   0.0666667   0.4666667   0.2000000), wk =   0.0106667
        k(   45) = (   0.0666667   0.4666667   0.4000000), wk =   0.0106667
        k(   46) = (   0.1333333   0.1333333   0.0000000), wk =   0.0053333
        k(   47) = (   0.1333333   0.1333333   0.2000000), wk =   0.0106667
        k(   48) = (   0.1333333   0.1333333   0.4000000), wk =   0.0106667
        k(   49) = (   0.1333333   0.2000000   0.0000000), wk =   0.0106667
        k(   50) = (   0.1333333   0.2000000   0.2000000), wk =   0.0106667
        k(   51) = (   0.1333333   0.2000000   0.4000000), wk =   0.0106667
        k(   52) = (   0.1333333   0.2666667   0.0000000), wk =   0.0106667
        k(   53) = (   0.1333333   0.2666667   0.2000000), wk =   0.0106667
        k(   54) = (   0.1333333   0.2666667   0.4000000), wk =   0.0106667
        k(   55) = (   0.1333333   0.3333333   0.0000000), wk =   0.0106667
        k(   56) = (   0.1333333   0.3333333   0.2000000), wk =   0.0106667
        k(   57) = (   0.1333333   0.3333333   0.4000000), wk =   0.0106667
        k(   58) = (   0.1333333   0.4000000  -0.0000000), wk =   0.0106667
        k(   59) = (   0.1333333   0.4000000   0.2000000), wk =   0.0106667
        k(   60) = (   0.1333333   0.4000000   0.4000000), wk =   0.0106667
        k(   61) = (   0.2000000   0.2000000   0.0000000), wk =   0.0053333
        k(   62) = (   0.2000000   0.2000000   0.2000000), wk =   0.0106667
        k(   63) = (   0.2000000   0.2000000   0.4000000), wk =   0.0106667
        k(   64) = (   0.2000000   0.2666667   0.0000000), wk =   0.0106667
        k(   65) = (   0.2000000   0.2666667   0.2000000), wk =   0.0106667
        k(   66) = (   0.2000000   0.2666667   0.4000000), wk =   0.0106667
        k(   67) = (   0.2000000   0.3333333  -0.0000000), wk =   0.0106667
        k(   68) = (   0.2000000   0.3333333   0.2000000), wk =   0.0106667
        k(   69) = (   0.2000000   0.3333333   0.4000000), wk =   0.0106667
        k(   70) = (   0.2000000   0.4000000  -0.0000000), wk =   0.0053333
        k(   71) = (   0.2000000   0.4000000   0.2000000), wk =   0.0106667
        k(   72) = (   0.2000000   0.4000000   0.4000000), wk =   0.0106667
        k(   73) = (   0.2666667   0.2666667   0.0000000), wk =   0.0053333
        k(   74) = (   0.2666667   0.2666667   0.2000000), wk =   0.0106667
        k(   75) = (   0.2666667   0.2666667   0.4000000), wk =   0.0106667
        k(   76) = (   0.2666667   0.3333333   0.0000000), wk =   0.0106667
        k(   77) = (   0.2666667   0.3333333   0.2000000), wk =   0.0106667
        k(   78) = (   0.2666667   0.3333333   0.4000000), wk =   0.0106667
        k(   79) = (   0.3333333   0.3333333  -0.0000000), wk =   0.0017778
        k(   80) = (   0.3333333   0.3333333   0.2000000), wk =   0.0035556
        k(   81) = (   0.3333333   0.3333333   0.4000000), wk =   0.0035556
        k(   82) = (   0.0000000  -0.0666667   0.2000000), wk =   0.0053333
        k(   83) = (   0.0000000  -0.0666667   0.4000000), wk =   0.0053333
        k(   84) = (   0.0000000  -0.1333333   0.2000000), wk =   0.0053333
        k(   85) = (   0.0000000  -0.1333333   0.4000000), wk =   0.0053333
        k(   86) = (   0.0000000  -0.2000000   0.2000000), wk =   0.0053333
        k(   87) = (   0.0000000  -0.2000000   0.4000000), wk =   0.0053333
        k(   88) = (   0.0000000  -0.2666667   0.2000000), wk =   0.0053333
        k(   89) = (   0.0000000  -0.2666667   0.4000000), wk =   0.0053333
        k(   90) = (   0.0000000  -0.3333333   0.2000000), wk =   0.0053333
        k(   91) = (   0.0000000  -0.3333333   0.4000000), wk =   0.0053333
        k(   92) = (   0.0000000  -0.4000000   0.2000000), wk =   0.0053333
        k(   93) = (   0.0000000  -0.4000000   0.4000000), wk =   0.0053333
        k(   94) = (   0.0000000  -0.4666667   0.2000000), wk =   0.0053333
        k(   95) = (   0.0000000  -0.4666667   0.4000000), wk =   0.0053333
        k(   96) = (  -0.0666667  -0.1333333   0.2000000), wk =   0.0106667
        k(   97) = (  -0.0666667  -0.1333333   0.4000000), wk =   0.0106667
        k(   98) = (  -0.0666667  -0.2000000   0.2000000), wk =   0.0106667
        k(   99) = (  -0.0666667  -0.2000000   0.4000000), wk =   0.0106667
        k(  100) = (  -0.0666667  -0.2666667   0.2000000), wk =   0.0106667
        k(  101) = (  -0.0666667  -0.2666667   0.4000000), wk =   0.0106667
        k(  102) = (  -0.0666667  -0.3333333   0.2000000), wk =   0.0106667
        k(  103) = (  -0.0666667  -0.3333333   0.4000000), wk =   0.0106667
        k(  104) = (  -0.0666667  -0.4000000   0.2000000), wk =   0.0106667
        k(  105) = (  -0.0666667  -0.4000000   0.4000000), wk =   0.0106667
        k(  106) = (  -0.1333333  -0.2000000   0.2000000), wk =   0.0106667
        k(  107) = (  -0.1333333  -0.2000000   0.4000000), wk =   0.0106667
        k(  108) = (  -0.1333333  -0.2666667   0.2000000), wk =   0.0106667
        k(  109) = (  -0.1333333  -0.2666667   0.4000000), wk =   0.0106667
        k(  110) = (  -0.1333333  -0.3333333   0.2000000), wk =   0.0106667
        k(  111) = (  -0.1333333  -0.3333333   0.4000000), wk =   0.0106667
        k(  112) = (  -0.1333333  -0.4000000   0.2000000), wk =   0.0106667
        k(  113) = (  -0.1333333  -0.4000000   0.4000000), wk =   0.0106667
        k(  114) = (  -0.2000000  -0.2666667   0.2000000), wk =   0.0106667
        k(  115) = (  -0.2000000  -0.2666667   0.4000000), wk =   0.0106667
        k(  116) = (  -0.2000000  -0.3333333   0.2000000), wk =   0.0106667
        k(  117) = (  -0.2000000  -0.3333333   0.4000000), wk =   0.0106667
        k(  118) = (  -0.2666667  -0.3333333   0.2000000), wk =   0.0106667
        k(  119) = (  -0.2666667  -0.3333333   0.4000000), wk =   0.0106667

     Dense  grid:   760893 G-vectors     FFT dimensions: (  64,  64, 432)

     Estimated max dynamical RAM per process >    1348.32MB

     Estimated total allocated dynamical RAM >   64719.47MB

     Initial potential from superposition of free atoms

     starting charge  173.97504, renormalised to  174.00000
     Starting wfc are  216 randomized atomic wfcs

     total cpu time spent up to now is      166.2 secs

     Self-consistent Calculation

     iteration #  1     ecut=   150.00 Ry     beta=0.70
     Davidson diagonalization with overlap
     ethr =  1.00E-02,  avg # of iterations =  1.7

     Threshold (ethr) on eigenvalues was too large:
     Diagonalizing with lowered threshold

     Davidson diagonalization with overlap
     ethr =  1.56E-04,  avg # of iterations =  3.0

     total cpu time spent up to now is     1034.1 secs

     total energy              =   -1673.37529551 Ry
     Harris-Foulkes estimate   =   -1673.50532043 Ry
     estimated scf accuracy    <       0.21852590 Ry

     iteration #  2     ecut=   150.00 Ry     beta=0.70
     Davidson diagonalization with overlap
     ethr =  1.26E-04,  avg # of iterations =  3.4

     total cpu time spent up to now is     1593.0 secs

     total energy              =   -1673.30496786 Ry
     Harris-Foulkes estimate   =   -1673.54395043 Ry
     estimated scf accuracy    <       0.61220563 Ry

     iteration #  3     ecut=   150.00 Ry     beta=0.70
     Davidson diagonalization with overlap
     ethr =  1.26E-04,  avg # of iterations =  3.0

     total cpu time spent up to now is     2100.3 secs

     total energy              =   -1673.43071912 Ry
     Harris-Foulkes estimate   =   -1673.46554258 Ry
     estimated scf accuracy    <       0.11120985 Ry

     iteration #  4     ecut=   150.00 Ry     beta=0.70
     Davidson diagonalization with overlap
     ethr =  6.39E-05,  avg # of iterations =  2.0

     total cpu time spent up to now is     2529.8 secs

     total energy              =   -1673.44628003 Ry
     Harris-Foulkes estimate   =   -1673.44716099 Ry
     estimated scf accuracy    <       0.00198524 Ry

     iteration #  5     ecut=   150.00 Ry     beta=0.70
     Davidson diagonalization with overlap
     ethr =  1.14E-06,  avg # of iterations =  4.6

     total cpu time spent up to now is     3130.4 secs

     total energy              =   -1673.44629256 Ry
     Harris-Foulkes estimate   =   -1673.44749533 Ry
     estimated scf accuracy    <       0.00553678 Ry

     iteration #  6     ecut=   150.00 Ry     beta=0.70
     Davidson diagonalization with overlap
     ethr =  1.14E-06,  avg # of iterations =  4.4

     total cpu time spent up to now is     3605.2 secs

     total energy              =   -1673.44694592 Ry
     Harris-Foulkes estimate   =   -1673.44721083 Ry
     estimated scf accuracy    <       0.00175509 Ry

     iteration #  7     ecut=   150.00 Ry     beta=0.70
     Davidson diagonalization with overlap
     ethr =  1.01E-06,  avg # of iterations =  3.5

     total cpu time spent up to now is     4029.6 secs

     total energy              =   -1673.44706972 Ry
     Harris-Foulkes estimate   =   -1673.44707393 Ry
     estimated scf accuracy    <       0.00001128 Ry

     iteration #  8     ecut=   150.00 Ry     beta=0.70
     Davidson diagonalization with overlap
     ethr =  6.48E-09,  avg # of iterations =  4.7

     total cpu time spent up to now is     4657.0 secs

     total energy              =   -1673.44707421 Ry
     Harris-Foulkes estimate   =   -1673.44707689 Ry
     estimated scf accuracy    <       0.00000641 Ry

     iteration #  9     ecut=   150.00 Ry     beta=0.70
     Davidson diagonalization with overlap
     ethr =  3.68E-09,  avg # of iterations =  4.4

     total cpu time spent up to now is     5168.9 secs

     total energy              =   -1673.44707398 Ry
     Harris-Foulkes estimate   =   -1673.44707766 Ry
     estimated scf accuracy    <       0.00001706 Ry

     iteration # 10     ecut=   150.00 Ry     beta=0.70
     Davidson diagonalization with overlap
     ethr =  3.68E-09,  avg # of iterations =  4.6

     total cpu time spent up to now is     5650.8 secs

     total energy              =   -1673.44707521 Ry
     Harris-Foulkes estimate   =   -1673.44707676 Ry
     estimated scf accuracy    <       0.00000837 Ry

     iteration # 11     ecut=   150.00 Ry     beta=0.70
     Davidson diagonalization with overlap
     ethr =  3.68E-09,  avg # of iterations =  3.8

     total cpu time spent up to now is     6104.2 secs

     total energy              =   -1673.44707595 Ry
     Harris-Foulkes estimate   =   -1673.44707611 Ry
     estimated scf accuracy    <       0.00000052 Ry

     iteration # 12     ecut=   150.00 Ry     beta=0.70
     Davidson diagonalization with overlap
     ethr =  3.00E-10,  avg # of iterations =  4.0

     total cpu time spent up to now is     6571.6 secs

     total energy              =   -1673.44707603 Ry
     Harris-Foulkes estimate   =   -1673.44707605 Ry
     estimated scf accuracy    <       0.00000005 Ry

     iteration # 13     ecut=   150.00 Ry     beta=0.70
     Davidson diagonalization with overlap
     ethr =  2.81E-11,  avg # of iterations =  4.1

     total cpu time spent up to now is     7074.1 secs

     total energy              =   -1673.44707604 Ry
     Harris-Foulkes estimate   =   -1673.44707605 Ry
     estimated scf accuracy    <       0.00000002 Ry

     iteration # 14     ecut=   150.00 Ry     beta=0.70
     Davidson diagonalization with overlap
     ethr =  8.87E-12,  avg # of iterations =  3.0

     total cpu time spent up to now is     7545.2 secs

     total energy              =   -1673.44707605 Ry
     Harris-Foulkes estimate   =   -1673.44707605 Ry
     estimated scf accuracy    <          2.0E-09 Ry

     iteration # 15     ecut=   150.00 Ry     beta=0.70
     Davidson diagonalization with overlap
     ethr =  1.17E-12,  avg # of iterations =  3.6

     total cpu time spent up to now is     8025.7 secs

     End of self-consistent calculation

          k = 0.0000 0.0000 0.0000 ( 94937 PWs)   bands (ev):

   -30.0470 -30.0470 -30.0470 -30.0470 -30.0470 -30.0470 -30.0362 -30.0362
   -30.0361 -30.0361 -30.0361 -30.0361 -30.0211 -30.0211 -30.0211 -30.0211
   -30.0210 -30.0210 -30.0117 -30.0117 -30.0117 -30.0117 -30.0117 -30.0117
   -28.5903 -28.5903 -28.5903 -28.5903 -28.5903 -28.5903 -28.5791 -28.5791
   -28.5791 -28.5791 -28.5791 -28.5791 -28.5681 -28.5681 -28.5681 -28.5681
   -28.5681 -28.5681 -28.5582 -28.5582 -28.5582 -28.5582 -28.5582 -28.5582
   -28.5561 -28.5561 -28.5561 -28.5561 -28.5560 -28.5560 -28.5468 -28.5468
   -28.5468 -28.5468 -28.5467 -28.5467  -7.7837  -7.7837  -7.7837  -7.7837
    -7.7837  -7.7837  -7.7679  -7.7679  -7.7679  -7.7679  -7.7678  -7.7678
    -7.7543  -7.7543  -7.7543  -7.7543  -7.7542  -7.7542  -7.7275  -7.7275
    -7.7275  -7.7275  -7.7275  -7.7275  -6.9616  -6.9616  -6.9616  -6.9616
    -6.9615  -6.9615  -6.9424  -6.9424  -6.9424  -6.9424  -6.9423  -6.9423
    -6.9288  -6.9288  -6.9288  -6.9288  -6.9288  -6.9288  -6.8970  -6.8970
    -6.8970  -6.8970  -6.8969  -6.8969  -6.8327  -6.8327  -6.8326  -6.8326
    -6.8326  -6.8326  -6.8069  -6.8069  -6.8069  -6.8069  -6.8069  -6.8069
    -4.5340  -4.5340  -4.4892  -4.4892  -4.4892  -4.4892  -4.2891  -4.2891
    -4.2890  -4.2890  -4.2343  -4.2343   1.2955   1.2955   1.5349   1.5349
     1.5349   1.5349   2.9946   2.9946   2.9947   2.9947   3.6138   3.6138
     5.4149   5.4149   5.8467   5.8467   5.8467   5.8467   5.9719   5.9719
     5.9720   5.9720   6.0337   6.0337   6.1742   6.1742   6.5264   6.5264
     6.5275   6.5275   6.5846   6.5846   6.6649   6.6649   6.6886   6.6886
     6.6887   6.6887   6.7285   6.7285   6.7297   6.7297

     occupation numbers 
     1.0000   1.0000   1.0000   1.0000   1.0000   1.0000   1.0000   1.0000
     1.0000   1.0000   1.0000   1.0000   1.0000   1.0000   1.0000   1.0000
     1.0000   1.0000   1.0000   1.0000   1.0000   1.0000   1.0000   1.0000
     1.0000   1.0000   1.0000   1.0000   1.0000   1.0000   1.0000   1.0000
     1.0000   1.0000   1.0000   1.0000   1.0000   1.0000   1.0000   1.0000
     1.0000   1.0000   1.0000   1.0000   1.0000   1.0000   1.0000   1.0000
     1.0000   1.0000   1.0000   1.0000   1.0000   1.0000   1.0000   1.0000
     1.0000   1.0000   1.0000   1.0000   1.0000   1.0000   1.0000   1.0000
     1.0000   1.0000   1.0000   1.0000   1.0000   1.0000   1.0000   1.0000
     1.0000   1.0000   1.0000   1.0000   1.0000   1.0000   1.0000   1.0000
     1.0000   1.0000   1.0000   1.0000   1.0000   1.0000   1.0000   1.0000
     1.0000   1.0000   1.0000   1.0000   1.0000   1.0000   1.0000   1.0000
     1.0000   1.0000   1.0000   1.0000   1.0000   1.0000   1.0000   1.0000
     1.0000   1.0000   1.0000   1.0000   1.0000   1.0000   1.0000   1.0000
     1.0000   1.0000   1.0000   1.0000   1.0000   1.0000   1.0000   1.0000
     1.0000   1.0000   1.0000   1.0000   1.0000   1.0000   1.0000   1.0000
     1.0000   1.0000   1.0000   1.0000   1.0000   1.0000   1.0000   1.0000
     1.0000   1.0000   1.0000   1.0000   1.0000   1.0000   1.0000   1.0000
     1.0000   1.0000   1.0000   1.0000   1.0000   1.0000   1.0000   1.0000
     1.0000   1.0000   1.0000   1.0000   1.0000   1.0000   1.0000   1.0000
     1.0000   1.0000   1.0000   1.0000   1.0000   1.0000   1.0000   1.0000
     1.0000   1.0000   1.0000   1.0000   1.0000   1.0000

          k = 0.0000 0.0000 0.0305 ( 94936 PWs)   bands (ev):

   -30.0470 -30.0470 -30.0470 -30.0470 -30.0470 -30.0470 -30.0362 -30.0362
   -30.0361 -30.0361 -30.0361 -30.0361 -30.0211 -30.0211 -30.0211 -30.0211
   -30.0210 -30.0210 -30.0117 -30.0117 -30.0117 -30.0117 -30.0117 -30.0117
   -28.5903 -28.5903 -28.5903 -28.5903 -28.5903 -28.5903 -28.5791 -28.5791
   -28.5791 -28.5791 -28.5791 -28.5791 -28.5681 -28.5681 -28.5681 -28.5681
   -28.5681 -28.5681 -28.5582 -28.5582 -28.5582 -28.5582 -28.5582 -28.5582
   -28.5561 -28.5561 -28.5561 -28.5561 -28.5560 -28.5560 -28.5468 -28.5468
   -28.5468 -28.5468 -28.5467 -28.5467  -7.7837  -7.7837  -7.7837  -7.7837
    -7.7837  -7.7837  -7.7679  -7.7679  -7.7679  -7.7679  -7.7678  -7.7678
    -7.7543  -7.7543  -7.7543  -7.7543  -7.7542  -7.7542  -7.7275  -7.7275
    -7.7275  -7.7275  -7.7275  -7.7275  -6.9616  -6.9616  -6.9616  -6.9616
    -6.9615  -6.9615  -6.9424  -6.9424  -6.9424  -6.9424  -6.9424  -6.9423
    -6.9288  -6.9288  -6.9288  -6.9288  -6.9288  -6.9288  -6.8970  -6.8970
    -6.8970  -6.8970  -6.8969  -6.8969  -6.8327  -6.8327  -6.8326  -6.8326
    -6.8326  -6.8326  -6.8069  -6.8069  -6.8069  -6.8069  -6.8069  -6.8069
    -4.5318  -4.5318  -4.5031  -4.5031  -4.4766  -4.4766  -4.3037  -4.3037
    -4.2726  -4.2726  -4.2370  -4.2370   1.3069   1.3069   1.4609   1.4609
     1.6019   1.6019   2.8698   2.8698   3.1500   3.1500   3.5731   3.5731
     5.4534   5.4534   5.7773   5.7773   5.8825   5.8825   5.9711   5.9711
     5.9796   5.9796   6.0260   6.0260   6.1939   6.1939   6.4945   6.4945
     6.5188   6.5195   6.5374   6.5388   6.5785   6.5797   6.6702   6.6715
     6.7155   6.7170   6.7378   6.7386   6.9099   6.9099

     occupation numbers 
     1.0000   1.0000   1.0000   1.0000   1.0000   1.0000   1.0000   1.0000
     1.0000   1.0000   1.0000   1.0000   1.0000   1.0000   1.0000   1.0000
     1.0000   1.0000   1.0000   1.0000   1.0000   1.0000   1.0000   1.0000
     1.0000   1.0000   1.0000   1.0000   1.0000   1.0000   1.0000   1.0000
     1.0000   1.0000   1.0000   1.0000   1.0000   1.0000   1.0000   1.0000
     1.0000   1.0000   1.0000   1.0000   1.0000   1.0000   1.0000   1.0000
     1.0000   1.0000   1.0000   1.0000   1.0000   1.0000   1.0000   1.0000
     1.0000   1.0000   1.0000   1.0000   1.0000   1.0000   1.0000   1.0000
     1.0000   1.0000   1.0000   1.0000   1.0000   1.0000   1.0000   1.0000
     1.0000   1.0000   1.0000   1.0000   1.0000   1.0000   1.0000   1.0000
     1.0000   1.0000   1.0000   1.0000   1.0000   1.0000   1.0000   1.0000
     1.0000   1.0000   1.0000   1.0000   1.0000   1.0000   1.0000   1.0000
     1.0000   1.0000   1.0000   1.0000   1.0000   1.0000   1.0000   1.0000
     1.0000   1.0000   1.0000   1.0000   1.0000   1.0000   1.0000   1.0000
     1.0000   1.0000   1.0000   1.0000   1.0000   1.0000   1.0000   1.0000
     1.0000   1.0000   1.0000   1.0000   1.0000   1.0000   1.0000   1.0000
     1.0000   1.0000   1.0000   1.0000   1.0000   1.0000   1.0000   1.0000
     1.0000   1.0000   1.0000   1.0000   1.0000   1.0000   1.0000   1.0000
     1.0000   1.0000   1.0000   1.0000   1.0000   1.0000   1.0000   1.0000
     1.0000   1.0000   1.0000   1.0000   1.0000   1.0000   1.0000   1.0000
     1.0000   1.0000   1.0000   1.0000   1.0000   1.0000   1.0000   1.0000
     1.0000   1.0000   1.0000   1.0000   1.0000   1.0000

          k = 0.0000 0.0000 0.0610 ( 95038 PWs)   bands (ev):

   -30.0470 -30.0470 -30.0470 -30.0470 -30.0470 -30.0470 -30.0362 -30.0362
   -30.0361 -30.0361 -30.0361 -30.0361 -30.0211 -30.0211 -30.0211 -30.0211
   -30.0210 -30.0210 -30.0117 -30.0117 -30.0117 -30.0117 -30.0117 -30.0117
   -28.5903 -28.5903 -28.5903 -28.5903 -28.5903 -28.5903 -28.5791 -28.5791
   -28.5791 -28.5791 -28.5791 -28.5791 -28.5681 -28.5681 -28.5681 -28.5681
   -28.5681 -28.5681 -28.5582 -28.5582 -28.5582 -28.5582 -28.5582 -28.5582
   -28.5561 -28.5561 -28.5561 -28.5561 -28.5560 -28.5560 -28.5468 -28.5468
   -28.5468 -28.5468 -28.5467 -28.5467  -7.7837  -7.7837  -7.7837  -7.7837
    -7.7836  -7.7836  -7.7679  -7.7679  -7.7679  -7.7679  -7.7678  -7.7678
    -7.7543  -7.7543  -7.7543  -7.7543  -7.7542  -7.7542  -7.7275  -7.7275
    -7.7275  -7.7275  -7.7275  -7.7275  -6.9616  -6.9616  -6.9616  -6.9616
    -6.9615  -6.9615  -6.9424  -6.9424  -6.9424  -6.9424  -6.9423  -6.9423
    -6.9288  -6.9288  -6.9288  -6.9288  -6.9288  -6.9288  -6.8970  -6.8970
    -6.8970  -6.8970  -6.8969  -6.8969  -6.8327  -6.8327  -6.8326  -6.8326
    -6.8326  -6.8326  -6.8069  -6.8069  -6.8069  -6.8069  -6.8069  -6.8069
    -4.5256  -4.5256  -4.5157  -4.5157  -4.4687  -4.4687  -4.3128  -4.3128
    -4.2572  -4.2572  -4.2449  -4.2449   1.3403   1.3403   1.3933   1.3933
     1.6434   1.6434   2.7984   2.7984   3.3140   3.3140   3.4640   3.4640
     5.5523   5.5523   5.6729   5.6729   5.8955   5.8955   5.9734   5.9734
     5.9929   5.9929   6.0097   6.0097   6.2504   6.2504   6.3476   6.3476
     6.5150   6.5153   6.5509   6.5525   6.5655   6.5671   6.6838   6.6855
     6.7000   6.7017   6.7428   6.7431   7.1126   7.1126

     occupation numbers 
     1.0000   1.0000   1.0000   1.0000   1.0000   1.0000   1.0000   1.0000
     1.0000   1.0000   1.0000   1.0000   1.0000   1.0000   1.0000   1.0000
     1.0000   1.0000   1.0000   1.0000   1.0000   1.0000   1.0000   1.0000
     1.0000   1.0000   1.0000   1.0000   1.0000   1.0000   1.0000   1.0000
     1.0000   1.0000   1.0000   1.0000   1.0000   1.0000   1.0000   1.0000
     1.0000   1.0000   1.0000   1.0000   1.0000   1.0000   1.0000   1.0000
     1.0000   1.0000   1.0000   1.0000   1.0000   1.0000   1.0000   1.0000
     1.0000   1.0000   1.0000   1.0000   1.0000   1.0000   1.0000   1.0000
     1.0000   1.0000   1.0000   1.0000   1.0000   1.0000   1.0000   1.0000
     1.0000   1.0000   1.0000   1.0000   1.0000   1.0000   1.0000   1.0000
     1.0000   1.0000   1.0000   1.0000   1.0000   1.0000   1.0000   1.0000
     1.0000   1.0000   1.0000   1.0000   1.0000   1.0000   1.0000   1.0000
     1.0000   1.0000   1.0000   1.0000   1.0000   1.0000   1.0000   1.0000
     1.0000   1.0000   1.0000   1.0000   1.0000   1.0000   1.0000   1.0000
     1.0000   1.0000   1.0000   1.0000   1.0000   1.0000   1.0000   1.0000
     1.0000   1.0000   1.0000   1.0000   1.0000   1.0000   1.0000   1.0000
     1.0000   1.0000   1.0000   1.0000   1.0000   1.0000   1.0000   1.0000
     1.0000   1.0000   1.0000   1.0000   1.0000   1.0000   1.0000   1.0000
     1.0000   1.0000   1.0000   1.0000   1.0000   1.0000   1.0000   1.0000
     1.0000   1.0000   1.0000   1.0000   1.0000   1.0000   1.0000   1.0000
     1.0000   1.0000   1.0000   1.0000   1.0000   1.0000   1.0000   1.0000
     1.0000   1.0000   1.0000   1.0000   1.0000   1.0000

          k = 0.0000 0.0770-0.0000 ( 95043 PWs)   bands (ev):

   -30.0470 -30.0470 -30.0470 -30.0470 -30.0470 -30.0470 -30.0361 -30.0361
   -30.0361 -30.0361 -30.0361 -30.0361 -30.0211 -30.0211 -30.0211 -30.0211
   -30.0210 -30.0210 -30.0117 -30.0117 -30.0117 -30.0117 -30.0117 -30.0117
   -28.5902 -28.5902 -28.5902 -28.5902 -28.5902 -28.5902 -28.5791 -28.5791
   -28.5791 -28.5791 -28.5790 -28.5790 -28.5681 -28.5681 -28.5681 -28.5681
   -28.5681 -28.5681 -28.5582 -28.5582 -28.5582 -28.5582 -28.5582 -28.5582
   -28.5561 -28.5561 -28.5560 -28.5560 -28.5560 -28.5560 -28.5468 -28.5468
   -28.5468 -28.5467 -28.5467 -28.5467  -7.7847  -7.7847  -7.7847  -7.7839
    -7.7839  -7.7839  -7.7680  -7.7680  -7.7680  -7.7680  -7.7680  -7.7679
    -7.7546  -7.7546  -7.7546  -7.7546  -7.7545  -7.7545  -7.7284  -7.7284
    -7.7284  -7.7278  -7.7278  -7.7277  -6.9641  -6.9641  -6.9641  -6.9627
    -6.9627  -6.9627  -6.9441  -6.9441  -6.9441  -6.9440  -6.9439  -6.9439
    -6.9289  -6.9289  -6.9289  -6.9281  -6.9281  -6.9281  -6.8966  -6.8966
    -6.8966  -6.8966  -6.8965  -6.8965  -6.8349  -6.8349  -6.8349  -6.8349
    -6.8349  -6.8349  -6.8056  -6.8055  -6.8055  -6.8054  -6.8053  -6.8053
    -4.4986  -4.4984  -4.4542  -4.4541  -4.4540  -4.4539  -4.2555  -4.2555
    -4.2554  -4.2553  -4.2013  -4.2012   1.3198   1.3199   1.5496   1.5497
     1.5501   1.5504   3.0015   3.0019   3.0027   3.0037   3.5725   3.5731
     5.3323   5.3344   5.6254   5.6308   5.6332   5.6473   5.8168   5.8223
     5.8276   5.8382   5.9043   5.9102   6.0736   6.0828   6.3499   6.3500
     6.3520   6.3559   6.4175   6.4210   6.4316   6.4337   6.4603   6.4613
     6.5115   6.5123   6.8341   6.8345   6.8385   6.8431

     occupation numbers 
     1.0000   1.0000   1.0000   1.0000   1.0000   1.0000   1.0000   1.0000
     1.0000   1.0000   1.0000   1.0000   1.0000   1.0000   1.0000   1.0000
     1.0000   1.0000   1.0000   1.0000   1.0000   1.0000   1.0000   1.0000
     1.0000   1.0000   1.0000   1.0000   1.0000   1.0000   1.0000   1.0000
     1.0000   1.0000   1.0000   1.0000   1.0000   1.0000   1.0000   1.0000
     1.0000   1.0000   1.0000   1.0000   1.0000   1.0000   1.0000   1.0000
     1.0000   1.0000   1.0000   1.0000   1.0000   1.0000   1.0000   1.0000
     1.0000   1.0000   1.0000   1.0000   1.0000   1.0000   1.0000   1.0000
     1.0000   1.0000   1.0000   1.0000   1.0000   1.0000   1.0000   1.0000
     1.0000   1.0000   1.0000   1.0000   1.0000   1.0000   1.0000   1.0000
     1.0000   1.0000   1.0000   1.0000   1.0000   1.0000   1.0000   1.0000
     1.0000   1.0000   1.0000   1.0000   1.0000   1.0000   1.0000   1.0000
     1.0000   1.0000   1.0000   1.0000   1.0000   1.0000   1.0000   1.0000
     1.0000   1.0000   1.0000   1.0000   1.0000   1.0000   1.0000   1.0000
     1.0000   1.0000   1.0000   1.0000   1.0000   1.0000   1.0000   1.0000
     1.0000   1.0000   1.0000   1.0000   1.0000   1.0000   1.0000   1.0000
     1.0000   1.0000   1.0000   1.0000   1.0000   1.0000   1.0000   1.0000
     1.0000   1.0000   1.0000   1.0000   1.0000   1.0000   1.0000   1.0000
     1.0000   1.0000   1.0000   1.0000   1.0000   1.0000   1.0000   1.0000
     1.0000   1.0000   1.0000   1.0000   1.0000   1.0000   1.0000   1.0000
     1.0000   1.0000   1.0000   1.0000   1.0000   1.0000   1.0000   1.0000
     1.0000   1.0000   1.0000   1.0000   1.0000   1.0000

          k = 0.0000 0.0770 0.0305 ( 95062 PWs)   bands (ev):

   -30.0470 -30.0470 -30.0470 -30.0470 -30.0470 -30.0470 -30.0361 -30.0361
   -30.0361 -30.0361 -30.0361 -30.0361 -30.0211 -30.0211 -30.0211 -30.0211
   -30.0210 -30.0210 -30.0117 -30.0117 -30.0117 -30.0117 -30.0117 -30.0117
   -28.5902 -28.5902 -28.5902 -28.5902 -28.5902 -28.5902 -28.5791 -28.5791
   -28.5791 -28.5791 -28.5790 -28.5790 -28.5681 -28.5681 -28.5681 -28.5681
   -28.5681 -28.5681 -28.5582 -28.5582 -28.5582 -28.5582 -28.5582 -28.5582
   -28.5561 -28.5561 -28.5560 -28.5560 -28.5560 -28.5560 -28.5468 -28.5468
   -28.5468 -28.5467 -28.5467 -28.5467  -7.7847  -7.7847  -7.7847  -7.7839
    -7.7839  -7.7839  -7.7680  -7.7680  -7.7680  -7.7680  -7.7680  -7.7679
    -7.7546  -7.7546  -7.7546  -7.7546  -7.7545  -7.7545  -7.7284  -7.7284
    -7.7284  -7.7278  -7.7278  -7.7277  -6.9641  -6.9641  -6.9641  -6.9627
    -6.9627  -6.9627  -6.9441  -6.9441  -6.9440  -6.9440  -6.9439  -6.9439
    -6.9289  -6.9289  -6.9289  -6.9281  -6.9281  -6.9281  -6.8966  -6.8966
    -6.8966  -6.8966  -6.8965  -6.8965  -6.8349  -6.8349  -6.8349  -6.8349
    -6.8349  -6.8349  -6.8056  -6.8055  -6.8055  -6.8054  -6.8053  -6.8053
    -4.4964  -4.4963  -4.4679  -4.4677  -4.4416  -4.4415  -4.2700  -4.2699
    -4.2392  -4.2390  -4.2039  -4.2039   1.3309   1.3310   1.4790   1.4791
     1.6135   1.6138   2.8849   2.8852   3.1479   3.1492   3.5359   3.5360
     5.3590   5.3590   5.5805   5.5949   5.6551   5.6669   5.8208   5.8267
     5.8294   5.8319   5.8977   5.9072   6.0922   6.1084   6.3148   6.3254
     6.3461   6.3494   6.4029   6.4094   6.4397   6.4397   6.4581   6.4638
     6.5349   6.5380   6.7069   6.7108   6.9835   6.9893

     occupation numbers 
     1.0000   1.0000   1.0000   1.0000   1.0000   1.0000   1.0000   1.0000
     1.0000   1.0000   1.0000   1.0000   1.0000   1.0000   1.0000   1.0000
     1.0000   1.0000   1.0000   1.0000   1.0000   1.0000   1.0000   1.0000
     1.0000   1.0000   1.0000   1.0000   1.0000   1.0000   1.0000   1.0000
     1.0000   1.0000   1.0000   1.0000   1.0000   1.0000   1.0000   1.0000
     1.0000   1.0000   1.0000   1.0000   1.0000   1.0000   1.0000   1.0000
     1.0000   1.0000   1.0000   1.0000   1.0000   1.0000   1.0000   1.0000
     1.0000   1.0000   1.0000   1.0000   1.0000   1.0000   1.0000   1.0000
     1.0000   1.0000   1.0000   1.0000   1.0000   1.0000   1.0000   1.0000
     1.0000   1.0000   1.0000   1.0000   1.0000   1.0000   1.0000   1.0000
     1.0000   1.0000   1.0000   1.0000   1.0000   1.0000   1.0000   1.0000
     1.0000   1.0000   1.0000   1.0000   1.0000   1.0000   1.0000   1.0000
     1.0000   1.0000   1.0000   1.0000   1.0000   1.0000   1.0000   1.0000
     1.0000   1.0000   1.0000   1.0000   1.0000   1.0000   1.0000   1.0000
     1.0000   1.0000   1.0000   1.0000   1.0000   1.0000   1.0000   1.0000
     1.0000   1.0000   1.0000   1.0000   1.0000   1.0000   1.0000   1.0000
     1.0000   1.0000   1.0000   1.0000   1.0000   1.0000   1.0000   1.0000
     1.0000   1.0000   1.0000   1.0000   1.0000   1.0000   1.0000   1.0000
     1.0000   1.0000   1.0000   1.0000   1.0000   1.0000   1.0000   1.0000
     1.0000   1.0000   1.0000   1.0000   1.0000   1.0000   1.0000   1.0000
     1.0000   1.0000   1.0000   1.0000   1.0000   1.0000   1.0000   1.0000
     1.0000   1.0000   1.0000   1.0000   1.0000   1.0000

          k = 0.0000 0.0770 0.0610 ( 95055 PWs)   bands (ev):

   -30.0470 -30.0470 -30.0470 -30.0470 -30.0470 -30.0470 -30.0361 -30.0361
   -30.0361 -30.0361 -30.0361 -30.0361 -30.0211 -30.0211 -30.0211 -30.0211
   -30.0210 -30.0210 -30.0117 -30.0117 -30.0117 -30.0117 -30.0117 -30.0117
   -28.5902 -28.5902 -28.5902 -28.5902 -28.5902 -28.5902 -28.5791 -28.5791
   -28.5791 -28.5791 -28.5790 -28.5790 -28.5681 -28.5681 -28.5681 -28.5681
   -28.5681 -28.5681 -28.5582 -28.5582 -28.5582 -28.5582 -28.5582 -28.5582
   -28.5561 -28.5561 -28.5560 -28.5560 -28.5560 -28.5560 -28.5468 -28.5468
   -28.5468 -28.5467 -28.5467 -28.5467  -7.7847  -7.7847  -7.7847  -7.7839
    -7.7839  -7.7839  -7.7680  -7.7680  -7.7680  -7.7680  -7.7680  -7.7679
    -7.7546  -7.7546  -7.7546  -7.7546  -7.7545  -7.7545  -7.7284  -7.7284
    -7.7284  -7.7278  -7.7278  -7.7277  -6.9641  -6.9641  -6.9641  -6.9627
    -6.9627  -6.9627  -6.9441  -6.9441  -6.9440  -6.9440  -6.9439  -6.9439
    -6.9289  -6.9289  -6.9289  -6.9281  -6.9281  -6.9281  -6.8966  -6.8966
    -6.8966  -6.8966  -6.8965  -6.8965  -6.8349  -6.8349  -6.8349  -6.8349
    -6.8349  -6.8349  -6.8056  -6.8055  -6.8055  -6.8054  -6.8054  -6.8053
    -4.4902  -4.4901  -4.4805  -4.4802  -4.4338  -4.4336  -4.2789  -4.2788
    -4.2240  -4.2238  -4.2117  -4.2117   1.3633   1.3635   1.4140   1.4141
     1.6524   1.6526   2.8186   2.8186   3.3001   3.3016   3.4367   3.4371
     5.4251   5.4258   5.5085   5.5201   5.6688   5.6836   5.8174   5.8283
     5.8439   5.8444   5.8783   5.8879   6.1550   6.1728   6.2383   6.2506
     6.3438   6.3458   6.4135   6.4153   6.4161   6.4163   6.4767   6.4770
     6.5734   6.5781   6.6191   6.6238   7.0907   7.1004

     occupation numbers 
     1.0000   1.0000   1.0000   1.0000   1.0000   1.0000   1.0000   1.0000
     1.0000   1.0000   1.0000   1.0000   1.0000   1.0000   1.0000   1.0000
     1.0000   1.0000   1.0000   1.0000   1.0000   1.0000   1.0000   1.0000
     1.0000   1.0000   1.0000   1.0000   1.0000   1.0000   1.0000   1.0000
     1.0000   1.0000   1.0000   1.0000   1.0000   1.0000   1.0000   1.0000
     1.0000   1.0000   1.0000   1.0000   1.0000   1.0000   1.0000   1.0000
     1.0000   1.0000   1.0000   1.0000   1.0000   1.0000   1.0000   1.0000
     1.0000   1.0000   1.0000   1.0000   1.0000   1.0000   1.0000   1.0000
     1.0000   1.0000   1.0000   1.0000   1.0000   1.0000   1.0000   1.0000
     1.0000   1.0000   1.0000   1.0000   1.0000   1.0000   1.0000   1.0000
     1.0000   1.0000   1.0000   1.0000   1.0000   1.0000   1.0000   1.0000
     1.0000   1.0000   1.0000   1.0000   1.0000   1.0000   1.0000   1.0000
     1.0000   1.0000   1.0000   1.0000   1.0000   1.0000   1.0000   1.0000
     1.0000   1.0000   1.0000   1.0000   1.0000   1.0000   1.0000   1.0000
     1.0000   1.0000   1.0000   1.0000   1.0000   1.0000   1.0000   1.0000
     1.0000   1.0000   1.0000   1.0000   1.0000   1.0000   1.0000   1.0000
     1.0000   1.0000   1.0000   1.0000   1.0000   1.0000   1.0000   1.0000
     1.0000   1.0000   1.0000   1.0000   1.0000   1.0000   1.0000   1.0000
     1.0000   1.0000   1.0000   1.0000   1.0000   1.0000   1.0000   1.0000
     1.0000   1.0000   1.0000   1.0000   1.0000   1.0000   1.0000   1.0000
     1.0000   1.0000   1.0000   1.0000   1.0000   1.0000   1.0000   1.0000
     1.0000   1.0000   1.0000   1.0000   1.0000   1.0000

          k = 0.0000 0.1540-0.0000 ( 95083 PWs)   bands (ev):

   -30.0469 -30.0469 -30.0469 -30.0469 -30.0469 -30.0469 -30.0361 -30.0361
   -30.0361 -30.0361 -30.0360 -30.0360 -30.0211 -30.0211 -30.0210 -30.0210
   -30.0210 -30.0210 -30.0117 -30.0117 -30.0117 -30.0117 -30.0117 -30.0116
   -28.5901 -28.5901 -28.5901 -28.5901 -28.5901 -28.5901 -28.5790 -28.5790
   -28.5790 -28.5789 -28.5789 -28.5789 -28.5681 -28.5681 -28.5681 -28.5681
   -28.5681 -28.5681 -28.5582 -28.5582 -28.5582 -28.5582 -28.5582 -28.5582
   -28.5560 -28.5560 -28.5560 -28.5560 -28.5560 -28.5559 -28.5467 -28.5467
   -28.5467 -28.5467 -28.5467 -28.5466  -7.7871  -7.7871  -7.7870  -7.7853
    -7.7853  -7.7852  -7.7686  -7.7685  -7.7685  -7.7680  -7.7680  -7.7680
    -7.7557  -7.7556  -7.7556  -7.7555  -7.7555  -7.7554  -7.7300  -7.7300
    -7.7300  -7.7292  -7.7291  -7.7291  -6.9703  -6.9703  -6.9701  -6.9676
    -6.9676  -6.9675  -6.9485  -6.9484  -6.9483  -6.9478  -6.9477  -6.9477
    -6.9286  -6.9286  -6.9286  -6.9274  -6.9273  -6.9273  -6.8955  -6.8955
    -6.8955  -6.8953  -6.8953  -6.8953  -6.8402  -6.8402  -6.8401  -6.8401
    -6.8400  -6.8400  -6.8022  -6.8022  -6.8022  -6.8020  -6.8020  -6.8019
    -4.3953  -4.3950  -4.3522  -4.3516  -4.3516  -4.3515  -4.1581  -4.1580
    -4.1579  -4.1574  -4.1054  -4.1053   1.3859   1.3860   1.5828   1.5834
     1.5871   1.5882   3.0019   3.0047   3.0146   3.0185   3.4265   3.4281
     4.9795   4.9873   5.0806   5.0861   5.0863   5.1026   5.3997   5.4045
     5.4248   5.4396   5.6303   5.6434   5.8788   5.8871   6.0530   6.0578
     6.0657   6.0724   6.1796   6.1905   6.1959   6.2078   6.2191   6.2414
     6.2972   6.3178   6.7917   6.7965   6.8250   6.8270

     occupation numbers 
     1.0000   1.0000   1.0000   1.0000   1.0000   1.0000   1.0000   1.0000
     1.0000   1.0000   1.0000   1.0000   1.0000   1.0000   1.0000   1.0000
     1.0000   1.0000   1.0000   1.0000   1.0000   1.0000   1.0000   1.0000
     1.0000   1.0000   1.0000   1.0000   1.0000   1.0000   1.0000   1.0000
     1.0000   1.0000   1.0000   1.0000   1.0000   1.0000   1.0000   1.0000
     1.0000   1.0000   1.0000   1.0000   1.0000   1.0000   1.0000   1.0000
     1.0000   1.0000   1.0000   1.0000   1.0000   1.0000   1.0000   1.0000
     1.0000   1.0000   1.0000   1.0000   1.0000   1.0000   1.0000   1.0000
     1.0000   1.0000   1.0000   1.0000   1.0000   1.0000   1.0000   1.0000
     1.0000   1.0000   1.0000   1.0000   1.0000   1.0000   1.0000   1.0000
     1.0000   1.0000   1.0000   1.0000   1.0000   1.0000   1.0000   1.0000
     1.0000   1.0000   1.0000   1.0000   1.0000   1.0000   1.0000   1.0000
     1.0000   1.0000   1.0000   1.0000   1.0000   1.0000   1.0000   1.0000
     1.0000   1.0000   1.0000   1.0000   1.0000   1.0000   1.0000   1.0000
     1.0000   1.0000   1.0000   1.0000   1.0000   1.0000   1.0000   1.0000
     1.0000   1.0000   1.0000   1.0000   1.0000   1.0000   1.0000   1.0000
     1.0000   1.0000   1.0000   1.0000   1.0000   1.0000   1.0000   1.0000
     1.0000   1.0000   1.0000   1.0000   1.0000   1.0000   1.0000   1.0000
     1.0000   1.0000   1.0000   1.0000   1.0000   1.0000   1.0000   1.0000
     1.0000   1.0000   1.0000   1.0000   1.0000   1.0000   1.0000   1.0000
     1.0000   1.0000   1.0000   1.0000   1.0000   1.0000   1.0000   1.0000
     1.0000   1.0000   1.0000   1.0000   1.0000   1.0000

          k = 0.0000 0.1540 0.0305 ( 95085 PWs)   bands (ev):

   -30.0469 -30.0469 -30.0469 -30.0469 -30.0469 -30.0469 -30.0361 -30.0361
   -30.0361 -30.0361 -30.0360 -30.0360 -30.0211 -30.0211 -30.0210 -30.0210
   -30.0210 -30.0210 -30.0117 -30.0117 -30.0117 -30.0117 -30.0117 -30.0116
   -28.5901 -28.5901 -28.5901 -28.5901 -28.5901 -28.5901 -28.5790 -28.5790
   -28.5790 -28.5789 -28.5789 -28.5789 -28.5681 -28.5681 -28.5681 -28.5681
   -28.5681 -28.5681 -28.5582 -28.5582 -28.5582 -28.5582 -28.5582 -28.5582
   -28.5560 -28.5560 -28.5560 -28.5560 -28.5560 -28.5559 -28.5467 -28.5467
   -28.5467 -28.5467 -28.5467 -28.5466  -7.7871  -7.7871  -7.7870  -7.7853
    -7.7853  -7.7852  -7.7686  -7.7685  -7.7685  -7.7680  -7.7680  -7.7680
    -7.7557  -7.7556  -7.7556  -7.7555  -7.7555  -7.7554  -7.7300  -7.7300
    -7.7300  -7.7292  -7.7291  -7.7291  -6.9704  -6.9702  -6.9701  -6.9676
    -6.9676  -6.9675  -6.9485  -6.9484  -6.9483  -6.9478  -6.9477  -6.9476
    -6.9286  -6.9286  -6.9286  -6.9274  -6.9273  -6.9273  -6.8955  -6.8955
    -6.8955  -6.8953  -6.8953  -6.8953  -6.8402  -6.8402  -6.8402  -6.8401
    -6.8400  -6.8400  -6.8022  -6.8022  -6.8022  -6.8020  -6.8020  -6.8019
    -4.3931  -4.3930  -4.3656  -4.3650  -4.3395  -4.3394  -4.1720  -4.1720
    -4.1421  -4.1417  -4.1080  -4.1080   1.3963   1.3967   1.5228   1.5235
     1.6391   1.6402   2.9140   2.9158   3.1265   3.1314   3.3992   3.3997
     4.9859   4.9904   5.0652   5.0821   5.0965   5.1048   5.4010   5.4121
     5.4241   5.4325   5.6101   5.6385   5.9068   5.9326   6.0503   6.0525
     6.0535   6.0667   6.1733   6.1746   6.1890   6.1941   6.2111   6.2182
     6.3540   6.3723   6.6584   6.6585   6.9366   6.9398

     occupation numbers 
     1.0000   1.0000   1.0000   1.0000   1.0000   1.0000   1.0000   1.0000
     1.0000   1.0000   1.0000   1.0000   1.0000   1.0000   1.0000   1.0000
     1.0000   1.0000   1.0000   1.0000   1.0000   1.0000   1.0000   1.0000
     1.0000   1.0000   1.0000   1.0000   1.0000   1.0000   1.0000   1.0000
     1.0000   1.0000   1.0000   1.0000   1.0000   1.0000   1.0000   1.0000
     1.0000   1.0000   1.0000   1.0000   1.0000   1.0000   1.0000   1.0000
     1.0000   1.0000   1.0000   1.0000   1.0000   1.0000   1.0000   1.0000
     1.0000   1.0000   1.0000   1.0000   1.0000   1.0000   1.0000   1.0000
     1.0000   1.0000   1.0000   1.0000   1.0000   1.0000   1.0000   1.0000
     1.0000   1.0000   1.0000   1.0000   1.0000   1.0000   1.0000   1.0000
     1.0000   1.0000   1.0000   1.0000   1.0000   1.0000   1.0000   1.0000
     1.0000   1.0000   1.0000   1.0000   1.0000   1.0000   1.0000   1.0000
     1.0000   1.0000   1.0000   1.0000   1.0000   1.0000   1.0000   1.0000
     1.0000   1.0000   1.0000   1.0000   1.0000   1.0000   1.0000   1.0000
     1.0000   1.0000   1.0000   1.0000   1.0000   1.0000   1.0000   1.0000
     1.0000   1.0000   1.0000   1.0000   1.0000   1.0000   1.0000   1.0000
     1.0000   1.0000   1.0000   1.0000   1.0000   1.0000   1.0000   1.0000
     1.0000   1.0000   1.0000   1.0000   1.0000   1.0000   1.0000   1.0000
     1.0000   1.0000   1.0000   1.0000   1.0000   1.0000   1.0000   1.0000
     1.0000   1.0000   1.0000   1.0000   1.0000   1.0000   1.0000   1.0000
     1.0000   1.0000   1.0000   1.0000   1.0000   1.0000   1.0000   1.0000
     1.0000   1.0000   1.0000   1.0000   1.0000   1.0000

          k = 0.0000 0.1540 0.0610 ( 95054 PWs)   bands (ev):

   -30.0469 -30.0469 -30.0469 -30.0469 -30.0469 -30.0469 -30.0361 -30.0361
   -30.0361 -30.0361 -30.0360 -30.0360 -30.0211 -30.0211 -30.0210 -30.0210
   -30.0210 -30.0210 -30.0117 -30.0117 -30.0117 -30.0117 -30.0117 -30.0116
   -28.5901 -28.5901 -28.5901 -28.5901 -28.5901 -28.5901 -28.5790 -28.5790
   -28.5790 -28.5789 -28.5789 -28.5789 -28.5681 -28.5681 -28.5681 -28.5681
   -28.5681 -28.5681 -28.5582 -28.5582 -28.5582 -28.5582 -28.5582 -28.5582
   -28.5560 -28.5560 -28.5560 -28.5560 -28.5560 -28.5559 -28.5467 -28.5467
   -28.5467 -28.5467 -28.5467 -28.5466  -7.7871  -7.7871  -7.7871  -7.7853
    -7.7853  -7.7852  -7.7686  -7.7685  -7.7685  -7.7680  -7.7680  -7.7680
    -7.7557  -7.7556  -7.7556  -7.7555  -7.7555  -7.7554  -7.7300  -7.7300
    -7.7300  -7.7292  -7.7291  -7.7291  -6.9704  -6.9702  -6.9701  -6.9676
    -6.9675  -6.9675  -6.9485  -6.9485  -6.9483  -6.9478  -6.9477  -6.9476
    -6.9286  -6.9286  -6.9286  -6.9274  -6.9273  -6.9273  -6.8955  -6.8955
    -6.8955  -6.8953  -6.8953  -6.8953  -6.8402  -6.8402  -6.8401  -6.8401
    -6.8400  -6.8400  -6.8022  -6.8022  -6.8022  -6.8020  -6.8020  -6.8019
    -4.3869  -4.3869  -4.3778  -4.3772  -4.3320  -4.3318  -4.1806  -4.1805
    -4.1274  -4.1270  -4.1156  -4.1156   1.4254   1.4261   1.4670   1.4675
     1.6697   1.6704   2.8660   2.8666   3.2403   3.2456   3.3275   3.3297
     5.0051   5.0077   5.0384   5.0548   5.1048   5.1156   5.3878   5.3950
     5.4639   5.4750   5.5589   5.5865   5.9855   6.0043   6.0159   6.0379
     6.0515   6.0539   6.1397   6.1654   6.1872   6.1976   6.2185   6.2196
     6.4364   6.4516   6.5214   6.5266   6.9939   7.0005

     occupation numbers 
     1.0000   1.0000   1.0000   1.0000   1.0000   1.0000   1.0000   1.0000
     1.0000   1.0000   1.0000   1.0000   1.0000   1.0000   1.0000   1.0000
     1.0000   1.0000   1.0000   1.0000   1.0000   1.0000   1.0000   1.0000
     1.0000   1.0000   1.0000   1.0000   1.0000   1.0000   1.0000   1.0000
     1.0000   1.0000   1.0000   1.0000   1.0000   1.0000   1.0000   1.0000
     1.0000   1.0000   1.0000   1.0000   1.0000   1.0000   1.0000   1.0000
     1.0000   1.0000   1.0000   1.0000   1.0000   1.0000   1.0000   1.0000
     1.0000   1.0000   1.0000   1.0000   1.0000   1.0000   1.0000   1.0000
     1.0000   1.0000   1.0000   1.0000   1.0000   1.0000   1.0000   1.0000
     1.0000   1.0000   1.0000   1.0000   1.0000   1.0000   1.0000   1.0000
     1.0000   1.0000   1.0000   1.0000   1.0000   1.0000   1.0000   1.0000
     1.0000   1.0000   1.0000   1.0000   1.0000   1.0000   1.0000   1.0000
     1.0000   1.0000   1.0000   1.0000   1.0000   1.0000   1.0000   1.0000
     1.0000   1.0000   1.0000   1.0000   1.0000   1.0000   1.0000   1.0000
     1.0000   1.0000   1.0000   1.0000   1.0000   1.0000   1.0000   1.0000
     1.0000   1.0000   1.0000   1.0000   1.0000   1.0000   1.0000   1.0000
     1.0000   1.0000   1.0000   1.0000   1.0000   1.0000   1.0000   1.0000
     1.0000   1.0000   1.0000   1.0000   1.0000   1.0000   1.0000   1.0000
     1.0000   1.0000   1.0000   1.0000   1.0000   1.0000   1.0000   1.0000
     1.0000   1.0000   1.0000   1.0000   1.0000   1.0000   1.0000   1.0000
     1.0000   1.0000   1.0000   1.0000   1.0000   1.0000   1.0000   1.0000
     1.0000   1.0000   1.0000   1.0000   1.0000   1.0000

          k = 0.0000 0.2309-0.0000 ( 95109 PWs)   bands (ev):

   -30.0468 -30.0468 -30.0468 -30.0468 -30.0468 -30.0468 -30.0360 -30.0360
   -30.0360 -30.0359 -30.0359 -30.0359 -30.0210 -30.0210 -30.0210 -30.0210
   -30.0210 -30.0210 -30.0117 -30.0117 -30.0117 -30.0116 -30.0116 -30.0116
   -28.5900 -28.5900 -28.5900 -28.5900 -28.5899 -28.5899 -28.5788 -28.5788
   -28.5788 -28.5788 -28.5787 -28.5787 -28.5681 -28.5681 -28.5681 -28.5681
   -28.5681 -28.5681 -28.5582 -28.5582 -28.5582 -28.5582 -28.5582 -28.5582
   -28.5559 -28.5559 -28.5559 -28.5559 -28.5559 -28.5559 -28.5467 -28.5466
   -28.5466 -28.5466 -28.5466 -28.5466  -7.7905  -7.7905  -7.7904  -7.7877
    -7.7877  -7.7877  -7.7693  -7.7693  -7.7692  -7.7680  -7.7679  -7.7679
    -7.7578  -7.7577  -7.7576  -7.7574  -7.7574  -7.7573  -7.7319  -7.7319
    -7.7318  -7.7312  -7.7311  -7.7310  -6.9791  -6.9789  -6.9787  -6.9756
    -6.9755  -6.9753  -6.9538  -6.9535  -6.9535  -6.9526  -6.9524  -6.9523
    -6.9283  -6.9283  -6.9282  -6.9270  -6.9269  -6.9269  -6.8937  -6.8937
    -6.8936  -6.8933  -6.8933  -6.8933  -6.8459  -6.8458  -6.8457  -6.8456
    -6.8456  -6.8455  -6.7983  -6.7982  -6.7982  -6.7981  -6.7980  -6.7980
    -4.2333  -4.2330  -4.1927  -4.1918  -4.1915  -4.1912  -4.0073  -4.0068
    -4.0064  -4.0056  -3.9573  -3.9572   1.4688   1.4689   1.6005   1.6020
     1.6159   1.6186   2.9322   2.9395   2.9794   2.9880   3.1379   3.1409
     4.4274   4.4382   4.4776   4.4884   4.4893   4.4950   4.9418   4.9592
     4.9737   4.9952   5.3807   5.3958   5.7224   5.7244   5.7864   5.7873
     5.8137   5.8164   5.9542   5.9777   5.9934   5.9964   6.0051   6.0326
     6.1665   6.1907   6.6330   6.6390   6.7088   6.7104

     occupation numbers 
     1.0000   1.0000   1.0000   1.0000   1.0000   1.0000   1.0000   1.0000
     1.0000   1.0000   1.0000   1.0000   1.0000   1.0000   1.0000   1.0000
     1.0000   1.0000   1.0000   1.0000   1.0000   1.0000   1.0000   1.0000
     1.0000   1.0000   1.0000   1.0000   1.0000   1.0000   1.0000   1.0000
     1.0000   1.0000   1.0000   1.0000   1.0000   1.0000   1.0000   1.0000
     1.0000   1.0000   1.0000   1.0000   1.0000   1.0000   1.0000   1.0000
     1.0000   1.0000   1.0000   1.0000   1.0000   1.0000   1.0000   1.0000
     1.0000   1.0000   1.0000   1.0000   1.0000   1.0000   1.0000   1.0000
     1.0000   1.0000   1.0000   1.0000   1.0000   1.0000   1.0000   1.0000
     1.0000   1.0000   1.0000   1.0000   1.0000   1.0000   1.0000   1.0000
     1.0000   1.0000   1.0000   1.0000   1.0000   1.0000   1.0000   1.0000
     1.0000   1.0000   1.0000   1.0000   1.0000   1.0000   1.0000   1.0000
     1.0000   1.0000   1.0000   1.0000   1.0000   1.0000   1.0000   1.0000
     1.0000   1.0000   1.0000   1.0000   1.0000   1.0000   1.0000   1.0000
     1.0000   1.0000   1.0000   1.0000   1.0000   1.0000   1.0000   1.0000
     1.0000   1.0000   1.0000   1.0000   1.0000   1.0000   1.0000   1.0000
     1.0000   1.0000   1.0000   1.0000   1.0000   1.0000   1.0000   1.0000
     1.0000   1.0000   1.0000   1.0000   1.0000   1.0000   1.0000   1.0000
     1.0000   1.0000   1.0000   1.0000   1.0000   1.0000   1.0000   1.0000
     1.0000   1.0000   1.0000   1.0000   1.0000   1.0000   1.0000   1.0000
     1.0000   1.0000   1.0000   1.0000   1.0000   1.0000   1.0000   1.0000
     1.0000   1.0000   1.0000   1.0000   1.0000   1.0000

          k = 0.0000 0.2309 0.0305 ( 95115 PWs)   bands (ev):

   -30.0468 -30.0468 -30.0468 -30.0468 -30.0468 -30.0468 -30.0360 -30.0360
   -30.0360 -30.0359 -30.0359 -30.0359 -30.0210 -30.0210 -30.0210 -30.0210
   -30.0210 -30.0210 -30.0117 -30.0117 -30.0117 -30.0116 -30.0116 -30.0116
   -28.5900 -28.5900 -28.5900 -28.5900 -28.5899 -28.5899 -28.5788 -28.5788
   -28.5788 -28.5788 -28.5787 -28.5787 -28.5681 -28.5681 -28.5681 -28.5681
   -28.5681 -28.5681 -28.5582 -28.5582 -28.5582 -28.5582 -28.5582 -28.5582
   -28.5559 -28.5559 -28.5559 -28.5559 -28.5559 -28.5559 -28.5467 -28.5466
   -28.5466 -28.5466 -28.5466 -28.5466  -7.7906  -7.7905  -7.7904  -7.7877
    -7.7877  -7.7877  -7.7693  -7.7693  -7.7692  -7.7680  -7.7679  -7.7679
    -7.7578  -7.7577  -7.7576  -7.7574  -7.7573  -7.7573  -7.7319  -7.7319
    -7.7318  -7.7312  -7.7311  -7.7310  -6.9792  -6.9788  -6.9788  -6.9756
    -6.9756  -6.9753  -6.9538  -6.9536  -6.9534  -6.9525  -6.9524  -6.9522
    -6.9283  -6.9283  -6.9282  -6.9270  -6.9269  -6.9269  -6.8937  -6.8937
    -6.8936  -6.8933  -6.8933  -6.8933  -6.8459  -6.8458  -6.8458  -6.8456
    -6.8455  -6.8455  -6.7983  -6.7982  -6.7982  -6.7981  -6.7980  -6.7980
    -4.2311  -4.2310  -4.2055  -4.2045  -4.1800  -4.1798  -4.0203  -4.0200
    -3.9916  -3.9908  -3.9599  -3.9598   1.4785   1.4794   1.5597   1.5614
     1.6476   1.6500   2.8982   2.9036   3.0325   3.0430   3.1190   3.1199
     4.4317   4.4408   4.4630   4.4754   4.5007   4.5065   4.9165   4.9296
     5.0114   5.0335   5.3405   5.3773   5.7562   5.7643   5.7831   5.7848
     5.8100   5.8199   5.9468   5.9502   5.9720   5.9930   6.0048   6.0065
     6.2344   6.2555   6.5324   6.5361   6.7712   6.7720

     occupation numbers 
     1.0000   1.0000   1.0000   1.0000   1.0000   1.0000   1.0000   1.0000
     1.0000   1.0000   1.0000   1.0000   1.0000   1.0000   1.0000   1.0000
     1.0000   1.0000   1.0000   1.0000   1.0000   1.0000   1.0000   1.0000
     1.0000   1.0000   1.0000   1.0000   1.0000   1.0000   1.0000   1.0000
     1.0000   1.0000   1.0000   1.0000   1.0000   1.0000   1.0000   1.0000
     1.0000   1.0000   1.0000   1.0000   1.0000   1.0000   1.0000   1.0000
     1.0000   1.0000   1.0000   1.0000   1.0000   1.0000   1.0000   1.0000
     1.0000   1.0000   1.0000   1.0000   1.0000   1.0000   1.0000   1.0000
     1.0000   1.0000   1.0000   1.0000   1.0000   1.0000   1.0000   1.0000
     1.0000   1.0000   1.0000   1.0000   1.0000   1.0000   1.0000   1.0000
     1.0000   1.0000   1.0000   1.0000   1.0000   1.0000   1.0000   1.0000
     1.0000   1.0000   1.0000   1.0000   1.0000   1.0000   1.0000   1.0000
     1.0000   1.0000   1.0000   1.0000   1.0000   1.0000   1.0000   1.0000
     1.0000   1.0000   1.0000   1.0000   1.0000   1.0000   1.0000   1.0000
     1.0000   1.0000   1.0000   1.0000   1.0000   1.0000   1.0000   1.0000
     1.0000   1.0000   1.0000   1.0000   1.0000   1.0000   1.0000   1.0000
     1.0000   1.0000   1.0000   1.0000   1.0000   1.0000   1.0000   1.0000
     1.0000   1.0000   1.0000   1.0000   1.0000   1.0000   1.0000   1.0000
     1.0000   1.0000   1.0000   1.0000   1.0000   1.0000   1.0000   1.0000
     1.0000   1.0000   1.0000   1.0000   1.0000   1.0000   1.0000   1.0000
     1.0000   1.0000   1.0000   1.0000   1.0000   1.0000   1.0000   1.0000
     1.0000   1.0000   1.0000   1.0000   1.0000   1.0000

          k = 0.0000 0.2309 0.0610 ( 95119 PWs)   bands (ev):

   -30.0468 -30.0468 -30.0468 -30.0468 -30.0468 -30.0468 -30.0360 -30.0360
   -30.0360 -30.0359 -30.0359 -30.0359 -30.0210 -30.0210 -30.0210 -30.0210
   -30.0210 -30.0210 -30.0117 -30.0117 -30.0117 -30.0116 -30.0116 -30.0116
   -28.5900 -28.5900 -28.5900 -28.5900 -28.5899 -28.5899 -28.5788 -28.5788
   -28.5788 -28.5788 -28.5787 -28.5787 -28.5681 -28.5681 -28.5681 -28.5681
   -28.5681 -28.5681 -28.5582 -28.5582 -28.5582 -28.5582 -28.5582 -28.5582
   -28.5559 -28.5559 -28.5559 -28.5559 -28.5559 -28.5559 -28.5467 -28.5466
   -28.5466 -28.5466 -28.5466 -28.5466  -7.7906  -7.7904  -7.7904  -7.7877
    -7.7877  -7.7877  -7.7693  -7.7693  -7.7692  -7.7680  -7.7679  -7.7679
    -7.7578  -7.7577  -7.7576  -7.7574  -7.7573  -7.7573  -7.7319  -7.7319
    -7.7318  -7.7312  -7.7311  -7.7310  -6.9792  -6.9789  -6.9787  -6.9756
    -6.9755  -6.9753  -6.9538  -6.9537  -6.9534  -6.9525  -6.9525  -6.9522
    -6.9283  -6.9283  -6.9282  -6.9270  -6.9269  -6.9269  -6.8937  -6.8937
    -6.8936  -6.8933  -6.8933  -6.8933  -6.8459  -6.8458  -6.8457  -6.8456
    -6.8456  -6.8455  -6.7983  -6.7982  -6.7982  -6.7981  -6.7980  -6.7980
    -4.2252  -4.2250  -4.2170  -4.2162  -4.1730  -4.1728  -4.0280  -4.0280
    -3.9777  -3.9771  -3.9672  -3.9670   1.5017   1.5033   1.5214   1.5230
     1.6637   1.6652   2.8863   2.8885   3.0810   3.0813   3.0855   3.0918
     4.4419   4.4490   4.4496   4.4623   4.5049   4.5110   4.8863   4.8907
     5.1043   5.1289   5.2517   5.2917   5.7859   5.7878   5.7886   5.7985
     5.7998   5.8078   5.9234   5.9643   5.9732   5.9804   5.9999   6.0068
     6.3489   6.3603   6.4181   6.4187   6.7888   6.7926

     occupation numbers 
     1.0000   1.0000   1.0000   1.0000   1.0000   1.0000   1.0000   1.0000
     1.0000   1.0000   1.0000   1.0000   1.0000   1.0000   1.0000   1.0000
     1.0000   1.0000   1.0000   1.0000   1.0000   1.0000   1.0000   1.0000
     1.0000   1.0000   1.0000   1.0000   1.0000   1.0000   1.0000   1.0000
     1.0000   1.0000   1.0000   1.0000   1.0000   1.0000   1.0000   1.0000
     1.0000   1.0000   1.0000   1.0000   1.0000   1.0000   1.0000   1.0000
     1.0000   1.0000   1.0000   1.0000   1.0000   1.0000   1.0000   1.0000
     1.0000   1.0000   1.0000   1.0000   1.0000   1.0000   1.0000   1.0000
     1.0000   1.0000   1.0000   1.0000   1.0000   1.0000   1.0000   1.0000
     1.0000   1.0000   1.0000   1.0000   1.0000   1.0000   1.0000   1.0000
     1.0000   1.0000   1.0000   1.0000   1.0000   1.0000   1.0000   1.0000
     1.0000   1.0000   1.0000   1.0000   1.0000   1.0000   1.0000   1.0000
     1.0000   1.0000   1.0000   1.0000   1.0000   1.0000   1.0000   1.0000
     1.0000   1.0000   1.0000   1.0000   1.0000   1.0000   1.0000   1.0000
     1.0000   1.0000   1.0000   1.0000   1.0000   1.0000   1.0000   1.0000
     1.0000   1.0000   1.0000   1.0000   1.0000   1.0000   1.0000   1.0000
     1.0000   1.0000   1.0000   1.0000   1.0000   1.0000   1.0000   1.0000
     1.0000   1.0000   1.0000   1.0000   1.0000   1.0000   1.0000   1.0000
     1.0000   1.0000   1.0000   1.0000   1.0000   1.0000   1.0000   1.0000
     1.0000   1.0000   1.0000   1.0000   1.0000   1.0000   1.0000   1.0000
     1.0000   1.0000   1.0000   1.0000   1.0000   1.0000   1.0000   1.0000
     1.0000   1.0000   1.0000   1.0000   1.0000   1.0000

          k = 0.0000 0.3079-0.0000 ( 95108 PWs)   bands (ev):

   -30.0467 -30.0467 -30.0467 -30.0467 -30.0467 -30.0467 -30.0359 -30.0359
   -30.0358 -30.0358 -30.0358 -30.0358 -30.0210 -30.0210 -30.0210 -30.0210
   -30.0210 -30.0209 -30.0117 -30.0116 -30.0116 -30.0116 -30.0116 -30.0116
   -28.5898 -28.5898 -28.5898 -28.5898 -28.5898 -28.5897 -28.5786 -28.5786
   -28.5786 -28.5786 -28.5786 -28.5785 -28.5681 -28.5681 -28.5681 -28.5681
   -28.5681 -28.5681 -28.5583 -28.5583 -28.5583 -28.5583 -28.5582 -28.5582
   -28.5558 -28.5558 -28.5558 -28.5558 -28.5558 -28.5558 -28.5466 -28.5465
   -28.5465 -28.5465 -28.5465 -28.5465  -7.7942  -7.7942  -7.7940  -7.7909
    -7.7909  -7.7908  -7.7704  -7.7703  -7.7703  -7.7681  -7.7680  -7.7680
    -7.7607  -7.7606  -7.7605  -7.7604  -7.7603  -7.7602  -7.7333  -7.7333
    -7.7332  -7.7330  -7.7329  -7.7328  -6.9885  -6.9880  -6.9879  -6.9849
    -6.9847  -6.9845  -6.9590  -6.9587  -6.9585  -6.9574  -6.9573  -6.9570
    -6.9285  -6.9285  -6.9284  -6.9274  -6.9273  -6.9272  -6.8913  -6.8913
    -6.8912  -6.8907  -6.8907  -6.8906  -6.8503  -6.8502  -6.8501  -6.8500
    -6.8498  -6.8497  -6.7943  -6.7942  -6.7942  -6.7941  -6.7941  -6.7940
    -4.0291  -4.0289  -3.9927  -3.9915  -3.9901  -3.9893  -3.8217  -3.8208
    -3.8191  -3.8180  -3.7755  -3.7754   1.5146   1.5146   1.5496   1.5517
     1.5841   1.5889   2.7026   2.7136   2.7316   2.7360   2.7980   2.8076
     3.9374   3.9495   4.0452   4.0474   4.0597   4.0691   4.6515   4.6869
     4.6995   4.7314   5.2326   5.2544   5.5445   5.5510   5.5510   5.5535
     5.5814   5.5848   5.7307   5.7684   5.7980   5.7989   5.8022   5.8306
     6.1009   6.1163   6.3611   6.3620   6.4850   6.4896

     occupation numbers 
     1.0000   1.0000   1.0000   1.0000   1.0000   1.0000   1.0000   1.0000
     1.0000   1.0000   1.0000   1.0000   1.0000   1.0000   1.0000   1.0000
     1.0000   1.0000   1.0000   1.0000   1.0000   1.0000   1.0000   1.0000
     1.0000   1.0000   1.0000   1.0000   1.0000   1.0000   1.0000   1.0000
     1.0000   1.0000   1.0000   1.0000   1.0000   1.0000   1.0000   1.0000
     1.0000   1.0000   1.0000   1.0000   1.0000   1.0000   1.0000   1.0000
     1.0000   1.0000   1.0000   1.0000   1.0000   1.0000   1.0000   1.0000
     1.0000   1.0000   1.0000   1.0000   1.0000   1.0000   1.0000   1.0000
     1.0000   1.0000   1.0000   1.0000   1.0000   1.0000   1.0000   1.0000
     1.0000   1.0000   1.0000   1.0000   1.0000   1.0000   1.0000   1.0000
     1.0000   1.0000   1.0000   1.0000   1.0000   1.0000   1.0000   1.0000
     1.0000   1.0000   1.0000   1.0000   1.0000   1.0000   1.0000   1.0000
     1.0000   1.0000   1.0000   1.0000   1.0000   1.0000   1.0000   1.0000
     1.0000   1.0000   1.0000   1.0000   1.0000   1.0000   1.0000   1.0000
     1.0000   1.0000   1.0000   1.0000   1.0000   1.0000   1.0000   1.0000
     1.0000   1.0000   1.0000   1.0000   1.0000   1.0000   1.0000   1.0000
     1.0000   1.0000   1.0000   1.0000   1.0000   1.0000   1.0000   1.0000
     1.0000   1.0000   1.0000   1.0000   1.0000   1.0000   1.0000   1.0000
     1.0000   1.0000   1.0000   1.0000   1.0000   1.0000   1.0000   1.0000
     1.0000   1.0000   1.0000   1.0000   1.0000   1.0000   1.0000   1.0000
     1.0000   1.0000   1.0000   1.0000   1.0000   1.0000   1.0000   1.0000
     1.0000   1.0000   1.0000   1.0000   1.0000   1.0000

          k = 0.0000 0.3079 0.0305 ( 95110 PWs)   bands (ev):

   -30.0467 -30.0467 -30.0467 -30.0467 -30.0467 -30.0467 -30.0359 -30.0359
   -30.0358 -30.0358 -30.0358 -30.0358 -30.0210 -30.0210 -30.0210 -30.0210
   -30.0210 -30.0209 -30.0117 -30.0116 -30.0116 -30.0116 -30.0116 -30.0116
   -28.5898 -28.5898 -28.5898 -28.5898 -28.5898 -28.5897 -28.5786 -28.5786
   -28.5786 -28.5786 -28.5786 -28.5785 -28.5681 -28.5681 -28.5681 -28.5681
   -28.5681 -28.5681 -28.5583 -28.5583 -28.5583 -28.5583 -28.5582 -28.5582
   -28.5558 -28.5558 -28.5558 -28.5558 -28.5558 -28.5558 -28.5466 -28.5465
   -28.5465 -28.5465 -28.5465 -28.5465  -7.7943  -7.7941  -7.7940  -7.7909
    -7.7909  -7.7908  -7.7704  -7.7703  -7.7703  -7.7681  -7.7680  -7.7679
    -7.7607  -7.7606  -7.7606  -7.7604  -7.7603  -7.7602  -7.7333  -7.7333
    -7.7332  -7.7330  -7.7329  -7.7329  -6.9885  -6.9880  -6.9879  -6.9849
    -6.9848  -6.9844  -6.9590  -6.9586  -6.9585  -6.9574  -6.9574  -6.9570
    -6.9285  -6.9285  -6.9284  -6.9274  -6.9273  -6.9272  -6.8913  -6.8913
    -6.8912  -6.8907  -6.8907  -6.8906  -6.8503  -6.8503  -6.8501  -6.8500
    -6.8498  -6.8497  -6.7942  -6.7942  -6.7942  -6.7941  -6.7940  -6.7940
    -4.0269  -4.0267  -4.0044  -4.0032  -3.9796  -3.9791  -3.8332  -3.8325
    -3.8056  -3.8046  -3.7782  -3.7780   1.5246   1.5261   1.5330   1.5358
     1.5899   1.5939   2.7149   2.7152   2.7231   2.7323   2.7956   2.8079
     3.9450   3.9570   4.0060   4.0090   4.0992   4.1057   4.5921   4.6109
     4.7769   4.8155   5.1844   5.2309   5.5408   5.5498   5.5773   5.5820
     5.5844   5.5893   5.7295   5.7611   5.7639   5.7966   5.8037   5.8087
     6.1697   6.1805   6.3054   6.3068   6.4933   6.4961

     occupation numbers 
     1.0000   1.0000   1.0000   1.0000   1.0000   1.0000   1.0000   1.0000
     1.0000   1.0000   1.0000   1.0000   1.0000   1.0000   1.0000   1.0000
     1.0000   1.0000   1.0000   1.0000   1.0000   1.0000   1.0000   1.0000
     1.0000   1.0000   1.0000   1.0000   1.0000   1.0000   1.0000   1.0000
     1.0000   1.0000   1.0000   1.0000   1.0000   1.0000   1.0000   1.0000
     1.0000   1.0000   1.0000   1.0000   1.0000   1.0000   1.0000   1.0000
     1.0000   1.0000   1.0000   1.0000   1.0000   1.0000   1.0000   1.0000
     1.0000   1.0000   1.0000   1.0000   1.0000   1.0000   1.0000   1.0000
     1.0000   1.0000   1.0000   1.0000   1.0000   1.0000   1.0000   1.0000
     1.0000   1.0000   1.0000   1.0000   1.0000   1.0000   1.0000   1.0000
     1.0000   1.0000   1.0000   1.0000   1.0000   1.0000   1.0000   1.0000
     1.0000   1.0000   1.0000   1.0000   1.0000   1.0000   1.0000   1.0000
     1.0000   1.0000   1.0000   1.0000   1.0000   1.0000   1.0000   1.0000
     1.0000   1.0000   1.0000   1.0000   1.0000   1.0000   1.0000   1.0000
     1.0000   1.0000   1.0000   1.0000   1.0000   1.0000   1.0000   1.0000
     1.0000   1.0000   1.0000   1.0000   1.0000   1.0000   1.0000   1.0000
     1.0000   1.0000   1.0000   1.0000   1.0000   1.0000   1.0000   1.0000
     1.0000   1.0000   1.0000   1.0000   1.0000   1.0000   1.0000   1.0000
     1.0000   1.0000   1.0000   1.0000   1.0000   1.0000   1.0000   1.0000
     1.0000   1.0000   1.0000   1.0000   1.0000   1.0000   1.0000   1.0000
[...]

   -30.0465 -30.0465 -30.0465 -30.0464 -30.0464 -30.0464 -30.0357 -30.0357
   -30.0356 -30.0356 -30.0356 -30.0355 -30.0209 -30.0209 -30.0209 -30.0209
   -30.0209 -30.0209 -30.0116 -30.0116 -30.0116 -30.0116 -30.0115 -30.0115
   -28.5894 -28.5894 -28.5894 -28.5894 -28.5894 -28.5893 -28.5783 -28.5783
   -28.5782 -28.5782 -28.5782 -28.5781 -28.5682 -28.5682 -28.5682 -28.5681
   -28.5681 -28.5681 -28.5583 -28.5583 -28.5583 -28.5582 -28.5582 -28.5582
   -28.5557 -28.5557 -28.5556 -28.5556 -28.5556 -28.5556 -28.5464 -28.5464
   -28.5464 -28.5463 -28.5463 -28.5463  -7.8034  -7.8032  -7.8032  -7.7928
    -7.7927  -7.7926  -7.7829  -7.7829  -7.7829  -7.7777  -7.7776  -7.7776
    -7.7640  -7.7639  -7.7637  -7.7509  -7.7509  -7.7509  -7.7372  -7.7372
    -7.7372  -7.7324  -7.7324  -7.7324  -7.0167  -7.0163  -7.0161  -6.9820
    -6.9819  -6.9817  -6.9776  -6.9775  -6.9775  -6.9660  -6.9660  -6.9659
    -6.9443  -6.9443  -6.9441  -6.9052  -6.9052  -6.9052  -6.8905  -6.8905
    -6.8904  -6.8826  -6.8826  -6.8826  -6.8647  -6.8645  -6.8644  -6.8511
    -6.8511  -6.8511  -6.7900  -6.7899  -6.7899  -6.7858  -6.7858  -6.7858
    -3.5634  -3.5628  -3.5553  -3.5545  -3.5287  -3.5273  -3.4395  -3.4387
    -3.4113  -3.4095  -3.4023  -3.4005   1.2746   1.3191   1.3247   1.3371
     1.3797   1.3870   2.0383   2.0501   2.1182   2.1503   2.1672   2.2347
     3.8916   3.9000   3.9082   3.9545   4.0324   4.1639   4.3322   4.3358
     4.4129   4.4189   4.4234   4.4947   4.5198   4.5286   4.6041   4.6048
     4.6875   4.7244   4.7959   4.8207   5.2639   5.3173   5.3948   5.4688
     5.7696   5.7949   5.8015   5.8663   5.8873   5.9145

     occupation numbers 
     1.0000   1.0000   1.0000   1.0000   1.0000   1.0000   1.0000   1.0000
     1.0000   1.0000   1.0000   1.0000   1.0000   1.0000   1.0000   1.0000
     1.0000   1.0000   1.0000   1.0000   1.0000   1.0000   1.0000   1.0000
     1.0000   1.0000   1.0000   1.0000   1.0000   1.0000   1.0000   1.0000
     1.0000   1.0000   1.0000   1.0000   1.0000   1.0000   1.0000   1.0000
     1.0000   1.0000   1.0000   1.0000   1.0000   1.0000   1.0000   1.0000
     1.0000   1.0000   1.0000   1.0000   1.0000   1.0000   1.0000   1.0000
     1.0000   1.0000   1.0000   1.0000   1.0000   1.0000   1.0000   1.0000
     1.0000   1.0000   1.0000   1.0000   1.0000   1.0000   1.0000   1.0000
     1.0000   1.0000   1.0000   1.0000   1.0000   1.0000   1.0000   1.0000
     1.0000   1.0000   1.0000   1.0000   1.0000   1.0000   1.0000   1.0000
     1.0000   1.0000   1.0000   1.0000   1.0000   1.0000   1.0000   1.0000
     1.0000   1.0000   1.0000   1.0000   1.0000   1.0000   1.0000   1.0000
     1.0000   1.0000   1.0000   1.0000   1.0000   1.0000   1.0000   1.0000
     1.0000   1.0000   1.0000   1.0000   1.0000   1.0000   1.0000   1.0000
     1.0000   1.0000   1.0000   1.0000   1.0000   1.0000   1.0000   1.0000
     1.0000   1.0000   1.0000   1.0000   1.0000   1.0000   1.0000   1.0000
     1.0000   1.0000   1.0000   1.0000   1.0000   1.0000   1.0000   1.0000
     1.0000   1.0000   1.0000   1.0000   1.0000   1.0000   1.0000   1.0000
     1.0000   1.0000   1.0000   1.0000   1.0000   1.0000   1.0000   1.0000
     1.0000   1.0000   1.0000   1.0000   1.0000   1.0000   1.0000   1.0000
     1.0000   1.0000   1.0000   1.0000   1.0000   1.0000

          k =-0.2000-0.5004 0.0305 ( 95214 PWs)   bands (ev):

   -30.0465 -30.0465 -30.0464 -30.0464 -30.0464 -30.0464 -30.0356 -30.0356
   -30.0356 -30.0355 -30.0355 -30.0355 -30.0209 -30.0209 -30.0209 -30.0209
   -30.0209 -30.0209 -30.0116 -30.0116 -30.0116 -30.0115 -30.0115 -30.0115
   -28.5894 -28.5894 -28.5893 -28.5893 -28.5893 -28.5892 -28.5782 -28.5782
   -28.5781 -28.5781 -28.5781 -28.5780 -28.5682 -28.5682 -28.5682 -28.5681
   -28.5681 -28.5681 -28.5584 -28.5584 -28.5583 -28.5582 -28.5582 -28.5582
   -28.5556 -28.5556 -28.5556 -28.5556 -28.5556 -28.5555 -28.5463 -28.5463
   -28.5463 -28.5463 -28.5463 -28.5463  -7.8039  -7.8039  -7.8038  -7.7959
    -7.7959  -7.7958  -7.7865  -7.7864  -7.7864  -7.7778  -7.7778  -7.7778
    -7.7659  -7.7656  -7.7656  -7.7497  -7.7497  -7.7496  -7.7370  -7.7370
    -7.7369  -7.7323  -7.7323  -7.7323  -7.0207  -7.0207  -7.0203  -6.9870
    -6.9868  -6.9867  -6.9814  -6.9814  -6.9813  -6.9621  -6.9621  -6.9620
    -6.9494  -6.9493  -6.9492  -6.9033  -6.9033  -6.9032  -6.8888  -6.8888
    -6.8888  -6.8808  -6.8808  -6.8807  -6.8671  -6.8671  -6.8669  -6.8516
    -6.8516  -6.8515  -6.7886  -6.7886  -6.7886  -6.7841  -6.7841  -6.7841
    -3.4210  -3.4198  -3.4007  -3.3986  -3.3973  -3.3952  -3.3241  -3.3217
    -3.3207  -3.3182  -3.2992  -3.2961   1.1634   1.1963   1.1982   1.2405
     1.2745   1.2758   1.8465   1.8554   1.8965   1.9701   1.9880   2.0274
     3.8035   3.8381   3.8547   3.9325   3.9878   4.0301   4.1867   4.2131
     4.2503   4.3526   4.3806   4.4130   4.4504   4.4630   4.5322   4.5644
     4.5807   4.6454   5.1051   5.1373   5.1679   5.2205   5.3511   5.4270
     5.4595   5.5108   5.6012   5.6500   5.6792   5.7571

     occupation numbers 
     1.0000   1.0000   1.0000   1.0000   1.0000   1.0000   1.0000   1.0000
     1.0000   1.0000   1.0000   1.0000   1.0000   1.0000   1.0000   1.0000
     1.0000   1.0000   1.0000   1.0000   1.0000   1.0000   1.0000   1.0000
     1.0000   1.0000   1.0000   1.0000   1.0000   1.0000   1.0000   1.0000
     1.0000   1.0000   1.0000   1.0000   1.0000   1.0000   1.0000   1.0000
     1.0000   1.0000   1.0000   1.0000   1.0000   1.0000   1.0000   1.0000
     1.0000   1.0000   1.0000   1.0000   1.0000   1.0000   1.0000   1.0000
     1.0000   1.0000   1.0000   1.0000   1.0000   1.0000   1.0000   1.0000
     1.0000   1.0000   1.0000   1.0000   1.0000   1.0000   1.0000   1.0000
     1.0000   1.0000   1.0000   1.0000   1.0000   1.0000   1.0000   1.0000
     1.0000   1.0000   1.0000   1.0000   1.0000   1.0000   1.0000   1.0000
     1.0000   1.0000   1.0000   1.0000   1.0000   1.0000   1.0000   1.0000
     1.0000   1.0000   1.0000   1.0000   1.0000   1.0000   1.0000   1.0000
     1.0000   1.0000   1.0000   1.0000   1.0000   1.0000   1.0000   1.0000
     1.0000   1.0000   1.0000   1.0000   1.0000   1.0000   1.0000   1.0000
     1.0000   1.0000   1.0000   1.0000   1.0000   1.0000   1.0000   1.0000
     1.0000   1.0000   1.0000   1.0000   1.0000   1.0000   1.0000   1.0000
     1.0000   1.0000   1.0000   1.0000   1.0000   1.0000   1.0000   1.0000
     1.0000   1.0000   1.0000   1.0000   1.0000   1.0000   1.0000   1.0000
     1.0000   1.0000   1.0000   1.0000   1.0000   1.0000   1.0000   1.0000
     1.0000   1.0000   1.0000   1.0000   1.0000   1.0000   1.0000   1.0000
     1.0000   1.0000   1.0000   1.0000   1.0000   1.0000

          k =-0.2000-0.5004 0.0610 ( 95205 PWs)   bands (ev):

   -30.0465 -30.0465 -30.0464 -30.0464 -30.0464 -30.0464 -30.0356 -30.0356
   -30.0356 -30.0355 -30.0355 -30.0355 -30.0209 -30.0209 -30.0209 -30.0209
   -30.0209 -30.0209 -30.0116 -30.0116 -30.0116 -30.0115 -30.0115 -30.0115
   -28.5894 -28.5894 -28.5893 -28.5893 -28.5893 -28.5892 -28.5782 -28.5782
   -28.5781 -28.5781 -28.5781 -28.5780 -28.5682 -28.5682 -28.5682 -28.5681
   -28.5681 -28.5681 -28.5584 -28.5584 -28.5583 -28.5582 -28.5582 -28.5582
   -28.5556 -28.5556 -28.5556 -28.5556 -28.5556 -28.5555 -28.5463 -28.5463
   -28.5463 -28.5463 -28.5463 -28.5463  -7.8039  -7.8039  -7.8038  -7.7959
    -7.7959  -7.7958  -7.7865  -7.7864  -7.7864  -7.7778  -7.7778  -7.7778
    -7.7659  -7.7657  -7.7656  -7.7497  -7.7497  -7.7496  -7.7370  -7.7370
    -7.7369  -7.7323  -7.7323  -7.7323  -7.0208  -7.0206  -7.0203  -6.9870
    -6.9868  -6.9867  -6.9814  -6.9814  -6.9813  -6.9621  -6.9621  -6.9620
    -6.9494  -6.9493  -6.9492  -6.9033  -6.9033  -6.9032  -6.8888  -6.8888
    -6.8888  -6.8808  -6.8808  -6.8807  -6.8671  -6.8670  -6.8670  -6.8516
    -6.8516  -6.8515  -6.7886  -6.7886  -6.7886  -6.7841  -6.7841  -6.7841
    -3.4195  -3.4182  -3.4076  -3.4057  -3.3911  -3.3887  -3.3304  -3.3284
    -3.3135  -3.3108  -3.3008  -3.2978   1.1648   1.1891   1.2041   1.2426
     1.2649   1.2833   1.8380   1.8685   1.8919   1.9624   2.0024   2.0206
     3.8009   3.8396   3.8619   3.9415   3.9712   4.0291   4.1732   4.2362
     4.2400   4.3253   4.4013   4.4267   4.4626   4.4707   4.4800   4.5302
     4.6322   4.7118   5.0087   5.0362   5.2545   5.3170   5.3266   5.3971
     5.4705   5.5175   5.6328   5.6441   5.6880   5.7184

     occupation numbers 
     1.0000   1.0000   1.0000   1.0000   1.0000   1.0000   1.0000   1.0000
     1.0000   1.0000   1.0000   1.0000   1.0000   1.0000   1.0000   1.0000
     1.0000   1.0000   1.0000   1.0000   1.0000   1.0000   1.0000   1.0000
     1.0000   1.0000   1.0000   1.0000   1.0000   1.0000   1.0000   1.0000
     1.0000   1.0000   1.0000   1.0000   1.0000   1.0000   1.0000   1.0000
     1.0000   1.0000   1.0000   1.0000   1.0000   1.0000   1.0000   1.0000
     1.0000   1.0000   1.0000   1.0000   1.0000   1.0000   1.0000   1.0000
     1.0000   1.0000   1.0000   1.0000   1.0000   1.0000   1.0000   1.0000
     1.0000   1.0000   1.0000   1.0000   1.0000   1.0000   1.0000   1.0000
     1.0000   1.0000   1.0000   1.0000   1.0000   1.0000   1.0000   1.0000
     1.0000   1.0000   1.0000   1.0000   1.0000   1.0000   1.0000   1.0000
     1.0000   1.0000   1.0000   1.0000   1.0000   1.0000   1.0000   1.0000
     1.0000   1.0000   1.0000   1.0000   1.0000   1.0000   1.0000   1.0000
     1.0000   1.0000   1.0000   1.0000   1.0000   1.0000   1.0000   1.0000
     1.0000   1.0000   1.0000   1.0000   1.0000   1.0000   1.0000   1.0000
     1.0000   1.0000   1.0000   1.0000   1.0000   1.0000   1.0000   1.0000
     1.0000   1.0000   1.0000   1.0000   1.0000   1.0000   1.0000   1.0000
     1.0000   1.0000   1.0000   1.0000   1.0000   1.0000   1.0000   1.0000
     1.0000   1.0000   1.0000   1.0000   1.0000   1.0000   1.0000   1.0000
     1.0000   1.0000   1.0000   1.0000   1.0000   1.0000   1.0000   1.0000
     1.0000   1.0000   1.0000   1.0000   1.0000   1.0000   1.0000   1.0000
     1.0000   1.0000   1.0000   1.0000   1.0000   1.0000

          k =-0.2667-0.5389 0.0305 ( 95263 PWs)   bands (ev):

   -30.0464 -30.0464 -30.0464 -30.0463 -30.0463 -30.0463 -30.0356 -30.0356
   -30.0355 -30.0355 -30.0355 -30.0354 -30.0209 -30.0209 -30.0209 -30.0209
   -30.0209 -30.0209 -30.0116 -30.0116 -30.0116 -30.0115 -30.0115 -30.0115
   -28.5893 -28.5893 -28.5893 -28.5892 -28.5892 -28.5892 -28.5782 -28.5781
   -28.5781 -28.5780 -28.5780 -28.5780 -28.5682 -28.5682 -28.5682 -28.5681
   -28.5681 -28.5681 -28.5584 -28.5584 -28.5583 -28.5582 -28.5582 -28.5582
   -28.5556 -28.5556 -28.5556 -28.5555 -28.5555 -28.5555 -28.5463 -28.5463
   -28.5463 -28.5463 -28.5463 -28.5462  -7.8036  -7.8036  -7.8035  -7.7985
    -7.7984  -7.7984  -7.7898  -7.7898  -7.7897  -7.7788  -7.7788  -7.7788
    -7.7656  -7.7654  -7.7654  -7.7472  -7.7472  -7.7472  -7.7366  -7.7366
    -7.7365  -7.7321  -7.7321  -7.7321  -7.0245  -7.0244  -7.0242  -6.9919
    -6.9917  -6.9917  -6.9789  -6.9789  -6.9789  -6.9641  -6.9641  -6.9640
    -6.9514  -6.9513  -6.9513  -6.8977  -6.8977  -6.8976  -6.8890  -6.8890
    -6.8890  -6.8797  -6.8797  -6.8796  -6.8706  -6.8706  -6.8705  -6.8525
    -6.8525  -6.8525  -6.7883  -6.7882  -6.7882  -6.7831  -6.7831  -6.7831
    -3.3220  -3.3196  -3.3050  -3.3049  -3.3019  -3.3018  -3.2633  -3.2632
    -3.2596  -3.2595  -3.2458  -3.2414   1.1445   1.1540   1.1589   1.2480
     1.2586   1.2615   1.8059   1.8069   1.8206   1.9737   1.9812   1.9919
     3.5907   3.6047   3.6409   3.7661   3.7925   3.7966   3.9083   3.9109
     3.9186   4.0898   4.1458   4.1643   4.5156   4.5312   4.6847   4.7112
     4.7210   4.7503   5.1439   5.1505   5.2324   5.2344   5.2594   5.3072
     5.3349   5.3828   5.4279   5.4981   5.5585   5.6395

     occupation numbers 
     1.0000   1.0000   1.0000   1.0000   1.0000   1.0000   1.0000   1.0000
     1.0000   1.0000   1.0000   1.0000   1.0000   1.0000   1.0000   1.0000
     1.0000   1.0000   1.0000   1.0000   1.0000   1.0000   1.0000   1.0000
     1.0000   1.0000   1.0000   1.0000   1.0000   1.0000   1.0000   1.0000
     1.0000   1.0000   1.0000   1.0000   1.0000   1.0000   1.0000   1.0000
     1.0000   1.0000   1.0000   1.0000   1.0000   1.0000   1.0000   1.0000
     1.0000   1.0000   1.0000   1.0000   1.0000   1.0000   1.0000   1.0000
     1.0000   1.0000   1.0000   1.0000   1.0000   1.0000   1.0000   1.0000
     1.0000   1.0000   1.0000   1.0000   1.0000   1.0000   1.0000   1.0000
     1.0000   1.0000   1.0000   1.0000   1.0000   1.0000   1.0000   1.0000
     1.0000   1.0000   1.0000   1.0000   1.0000   1.0000   1.0000   1.0000
     1.0000   1.0000   1.0000   1.0000   1.0000   1.0000   1.0000   1.0000
     1.0000   1.0000   1.0000   1.0000   1.0000   1.0000   1.0000   1.0000
     1.0000   1.0000   1.0000   1.0000   1.0000   1.0000   1.0000   1.0000
     1.0000   1.0000   1.0000   1.0000   1.0000   1.0000   1.0000   1.0000
     1.0000   1.0000   1.0000   1.0000   1.0000   1.0000   1.0000   1.0000
     1.0000   1.0000   1.0000   1.0000   1.0000   1.0000   1.0000   1.0000
     1.0000   1.0000   1.0000   1.0000   1.0000   1.0000   1.0000   1.0000
     1.0000   1.0000   1.0000   1.0000   1.0000   1.0000   1.0000   1.0000
     1.0000   1.0000   1.0000   1.0000   1.0000   1.0000   1.0000   1.0000
     1.0000   1.0000   1.0000   1.0000   1.0000   1.0000   1.0000   1.0000
     1.0000   1.0000   1.0000   1.0000   1.0000   1.0000

          k =-0.2667-0.5389 0.0610 ( 95268 PWs)   bands (ev):

   -30.0464 -30.0464 -30.0464 -30.0463 -30.0463 -30.0463 -30.0356 -30.0356
   -30.0355 -30.0355 -30.0355 -30.0354 -30.0209 -30.0209 -30.0209 -30.0209
   -30.0209 -30.0209 -30.0116 -30.0116 -30.0116 -30.0115 -30.0115 -30.0115
   -28.5893 -28.5893 -28.5893 -28.5892 -28.5892 -28.5892 -28.5782 -28.5781
   -28.5781 -28.5780 -28.5780 -28.5780 -28.5682 -28.5682 -28.5682 -28.5681
   -28.5681 -28.5681 -28.5584 -28.5584 -28.5583 -28.5582 -28.5582 -28.5582
   -28.5556 -28.5556 -28.5556 -28.5555 -28.5555 -28.5555 -28.5463 -28.5463
   -28.5463 -28.5463 -28.5463 -28.5462  -7.8036  -7.8036  -7.8035  -7.7985
    -7.7985  -7.7984  -7.7898  -7.7898  -7.7897  -7.7788  -7.7788  -7.7788
    -7.7656  -7.7654  -7.7654  -7.7472  -7.7472  -7.7472  -7.7366  -7.7366
    -7.7365  -7.7321  -7.7321  -7.7321  -7.0245  -7.0244  -7.0242  -6.9919
    -6.9917  -6.9916  -6.9789  -6.9789  -6.9789  -6.9641  -6.9641  -6.9640
    -6.9514  -6.9513  -6.9513  -6.8977  -6.8977  -6.8976  -6.8890  -6.8890
    -6.8890  -6.8797  -6.8797  -6.8796  -6.8706  -6.8706  -6.8705  -6.8525
    -6.8525  -6.8525  -6.7883  -6.7882  -6.7882  -6.7831  -6.7831  -6.7831
    -3.3212  -3.3188  -3.3106  -3.3077  -3.2991  -3.2957  -3.2692  -3.2658
    -3.2575  -3.2536  -3.2466  -3.2422   1.1441   1.1561   1.1573   1.2480
     1.2585   1.2616   1.8032   1.8107   1.8196   1.9719   1.9855   1.9893
     3.5953   3.5984   3.6438   3.7651   3.7936   3.7960   3.9075   3.9126
     3.9175   4.0854   4.1509   4.1612   4.5340   4.5513   4.6226   4.6473
     4.7677   4.8208   5.1035   5.1714   5.2027   5.2083   5.3061   5.3080
     5.3101   5.4068   5.4107   5.5276   5.5533   5.6349

     occupation numbers 
     1.0000   1.0000   1.0000   1.0000   1.0000   1.0000   1.0000   1.0000
     1.0000   1.0000   1.0000   1.0000   1.0000   1.0000   1.0000   1.0000
     1.0000   1.0000   1.0000   1.0000   1.0000   1.0000   1.0000   1.0000
     1.0000   1.0000   1.0000   1.0000   1.0000   1.0000   1.0000   1.0000
     1.0000   1.0000   1.0000   1.0000   1.0000   1.0000   1.0000   1.0000
     1.0000   1.0000   1.0000   1.0000   1.0000   1.0000   1.0000   1.0000
     1.0000   1.0000   1.0000   1.0000   1.0000   1.0000   1.0000   1.0000
     1.0000   1.0000   1.0000   1.0000   1.0000   1.0000   1.0000   1.0000
     1.0000   1.0000   1.0000   1.0000   1.0000   1.0000   1.0000   1.0000
     1.0000   1.0000   1.0000   1.0000   1.0000   1.0000   1.0000   1.0000
     1.0000   1.0000   1.0000   1.0000   1.0000   1.0000   1.0000   1.0000
     1.0000   1.0000   1.0000   1.0000   1.0000   1.0000   1.0000   1.0000
     1.0000   1.0000   1.0000   1.0000   1.0000   1.0000   1.0000   1.0000
     1.0000   1.0000   1.0000   1.0000   1.0000   1.0000   1.0000   1.0000
     1.0000   1.0000   1.0000   1.0000   1.0000   1.0000   1.0000   1.0000
     1.0000   1.0000   1.0000   1.0000   1.0000   1.0000   1.0000   1.0000
     1.0000   1.0000   1.0000   1.0000   1.0000   1.0000   1.0000   1.0000
     1.0000   1.0000   1.0000   1.0000   1.0000   1.0000   1.0000   1.0000
     1.0000   1.0000   1.0000   1.0000   1.0000   1.0000   1.0000   1.0000
     1.0000   1.0000   1.0000   1.0000   1.0000   1.0000   1.0000   1.0000
     1.0000   1.0000   1.0000   1.0000   1.0000   1.0000   1.0000   1.0000
     1.0000   1.0000   1.0000   1.0000   1.0000   1.0000

     highest occupied level (ev):     7.1126

!    total energy              =   -1673.44707605 Ry
     Harris-Foulkes estimate   =   -1673.44707605 Ry
     estimated scf accuracy    <          4.5E-10 Ry

     The total energy is the sum of the following terms:

     one-electron contribution =    -888.99411395 Ry
     hartree contribution      =     494.34344167 Ry
     xc contribution           =    -191.73044738 Ry
     ewald contribution        =   -1087.06595638 Ry

     convergence has been achieved in  15 iterations

     Writing output data file InTegamma.save
 
     init_run     :    159.99s CPU    165.81s WALL (       1 calls)
     electrons    :   7555.40s CPU   7859.79s WALL (       1 calls)

     Called by init_run:
     wfcinit      :    158.94s CPU    164.48s WALL (       1 calls)
     wfcinit:atom :      0.73s CPU      1.10s WALL (     119 calls)
     wfcinit:wfcr :    154.27s CPU    158.94s WALL (     119 calls)
     potinit      :      0.21s CPU      0.22s WALL (       1 calls)

     Called by electrons:
     c_bands      :   6840.62s CPU   7122.41s WALL (      16 calls)
     sum_band     :    713.82s CPU    736.11s WALL (      16 calls)
     v_of_rho     :      0.44s CPU      0.50s WALL (      16 calls)
     v_h          :      0.04s CPU      0.04s WALL (      16 calls)
     v_xc         :      0.40s CPU      0.46s WALL (      16 calls)
     mix_rho      :      0.37s CPU      0.49s WALL (      16 calls)

     Called by c_bands:
     init_us_2    :     17.94s CPU     19.18s WALL (    3927 calls)
     cegterg      :   6397.20s CPU   6675.58s WALL (    1904 calls)

     Called by sum_band:

     Called by *egterg:
     h_psi        :   4438.01s CPU   4569.96s WALL (    8923 calls)
     g_psi        :     20.64s CPU     20.69s WALL (    6900 calls)
     cdiaghg      :    660.06s CPU    726.22s WALL (    8685 calls)
     cegterg:over :    558.88s CPU    571.13s WALL (    6900 calls)
     cegterg:upda :    454.03s CPU    479.99s WALL (    6900 calls)
     cegterg:last :    227.82s CPU    232.77s WALL (    1904 calls)
     cdiaghg:chol :     42.31s CPU     42.36s WALL (    8685 calls)
     cdiaghg:inve :     31.04s CPU     31.14s WALL (    8685 calls)
     cdiaghg:para :    118.84s CPU    171.98s WALL (   17370 calls)

     Called by h_psi:
     h_psi:pot    :   4409.45s CPU   4541.36s WALL (    8923 calls)
     h_psi:calbec :    495.73s CPU    506.11s WALL (    8923 calls)
     vloc_psi     :   3409.16s CPU   3518.67s WALL (    8923 calls)
     add_vuspsi   :    504.51s CPU    516.53s WALL (    8923 calls)

     General routines
     calbec       :    495.71s CPU    506.10s WALL (    8923 calls)
     fft          :      0.51s CPU      0.55s WALL (     273 calls)
     fftw         :   3880.94s CPU   4008.01s WALL ( 4066480 calls)
     davcio       :      0.07s CPU    178.44s WALL (     119 calls)
 
     Parallel routines
     fft_scatter  :   2943.31s CPU   2972.00s WALL ( 4066753 calls)
 
     PWSCF        :     2h 8m CPU        2h18m WALL

 
   This run was terminated on:  23:14:24   6Apr2022            

=------------------------------------------------------------------------------=
   JOB DONE.
=------------------------------------------------------------------------------=
