
     Program PWSCF v.6.1 (svn rev. 13369) starts on  7Apr2022 at 11:53:47 

     This program is part of the open-source Quantum ESPRESSO suite
     for quantum simulation of materials; please cite
         "P. Giannozzi et al., J. Phys.:Condens. Matter 21 395502 (2009);
          URL http://www.quantum-espresso.org", 
     in publications or presentations arising from this work. More details at
     http://www.quantum-espresso.org/quote

     Parallel version (MPI), running on    48 processors
     R & G space division:  proc/nbgrp/npool/nimage =      48
     Reading input from InTegamma_band.in
Warning: card &IONS ignored
Warning: card / ignored
Warning: card &CELL ignored
Warning: card     CELL_DOFREE='ALL' ignored
Warning: card / ignored

     Current dimensions of program PWSCF are:
     Max number of different atomic species (ntypx) = 10
     Max number of k-points (npk) =  40000
     Max angular momentum in pseudopotentials (lmaxx) =  3

     Atomic positions and unit cell read from directory:
     /share/inl/marcel/TB-SO/InTegamma_outdir/InTegamma.save/
 

     IMPORTANT: XC functional enforced from input :
     Exchange-correlation      = SLA+PW+PSX+PSC ( 1  4 10  8 0 0)
     Any further DFT definition will be discarded
     Please, verify this is what you really want


     Subspace diagonalization in iterative solution of the eigenvalue problem:
     one sub-group per band group will be used
     scalapack distributed-memory algorithm (size of sub-group:  4*  4 procs)

 
     Parallelization info
     --------------------
     sticks:   dense  smooth     PW     G-vecs:    dense   smooth      PW
     Min          56      56     15                15816    15816    2229
     Max          57      57     16                15873    15873    2272
     Sum        2725    2725    745               760893   760893  107893
 


     bravais-lattice index     =            0
     lattice parameter (alat)  =       8.1435  a.u.
     unit-cell volume          =    3066.7167 (a.u.)^3
     number of atoms/cell      =           12
     number of atomic types    =            2
     number of electrons       =       174.00
     number of Kohn-Sham states=          120
     kinetic-energy cutoff     =     150.0000  Ry
     charge density cutoff     =     600.0000  Ry
     Exchange-correlation      = SLA+PW+PSX+PSC ( 1  4 10  8 0 0)
     Non magnetic calculation with spin-orbit


     celldm(1)=   8.143498  celldm(2)=   0.000000  celldm(3)=   0.000000
     celldm(4)=   0.000000  celldm(5)=   0.000000  celldm(6)=   0.000000

     crystal axes: (cart. coord. in units of alat)
               a(1) = (   1.000000   0.000000   0.000000 )  
               a(2) = (  -0.500000   0.866025   0.000000 )  
               a(3) = (   0.000000   0.000000   6.557072 )  

     reciprocal axes: (cart. coord. in units 2 pi/alat)
               b(1) = (  1.000000  0.577350 -0.000000 )  
               b(2) = (  0.000000  1.154701 -0.000000 )  
               b(3) = (  0.000000  0.000000  0.152507 )  


     PseudoPot. # 1 for In read from file:
     /home/mclaro/pseudo/ONCVPSP/sg15/In_ONCV_PBE_fr.upf
     MD5 check sum: eedf9510f5d1e34334b25b4623707d2f
     Pseudo is Norm-conserving, Zval = 13.0
     Generated using ONCVPSP code by D. R. Hamann
     Using radial grid of 1986 points, 10 beta functions with: 
                l(1) =   0
                l(2) =   0
                l(3) =   1
                l(4) =   1
                l(5) =   1
                l(6) =   1
                l(7) =   2
                l(8) =   2
                l(9) =   2
               l(10) =   2

     PseudoPot. # 2 for Te read from file:
     /home/mclaro/pseudo/ONCVPSP/sg15/Te_ONCV_PBE_fr.upf
     MD5 check sum: fbe956063e00beff679dd20f3414d505
     Pseudo is Norm-conserving, Zval = 16.0
     Generated using ONCVPSP code by D. R. Hamann
     Using radial grid of 1324 points, 10 beta functions with: 
                l(1) =   0
                l(2) =   0
                l(3) =   1
                l(4) =   1
                l(5) =   1
                l(6) =   1
                l(7) =   2
                l(8) =   2
                l(9) =   2
               l(10) =   2

     atomic species   valence    mass     pseudopotential
        In            13.00   114.81800     In( 1.00)
        Te            16.00   127.60000     Te( 1.00)

      6 Sym. Ops. (no inversion) found


                                    s                        frac. trans.

      isym =  1     identity                                     

 cryst.   s( 1) = (     1          0          0      )
                  (     0          1          0      )
                  (     0          0          1      )

 cart.    s( 1) = (  1.0000000  0.0000000 -0.0000000 )
                  (  0.0000000  1.0000000 -0.0000000 )
                  (  0.0000000  0.0000000  1.0000000 )


      isym =  2     120 deg rotation - cryst. axis [0,0,1]       

 cryst.   s( 2) = (     0          1          0      )
                  (    -1         -1          0      )
                  (     0          0          1      )

 cart.    s( 2) = ( -0.5000000 -0.8660254  0.0000000 )
                  (  0.8660254 -0.5000000  0.0000000 )
                  (  0.0000000  0.0000000  1.0000000 )


      isym =  3     120 deg rotation - cryst. axis [0,0,-1]      

 cryst.   s( 3) = (    -1         -1          0      )
                  (     1          0          0      )
                  (     0          0          1      )

 cart.    s( 3) = ( -0.5000000  0.8660254  0.0000000 )
                  ( -0.8660254 -0.5000000  0.0000000 )
                  (  0.0000000  0.0000000  1.0000000 )


      isym =  4     inv. 180 deg rotation - cart. axis [1,0,0]   

 cryst.   s( 4) = (    -1          0          0      )
                  (     1          1          0      )
                  (     0          0          1      )

 cart.    s( 4) = ( -1.0000000  0.0000000  0.0000000 )
                  (  0.0000000  1.0000000 -0.0000000 )
                  (  0.0000000  0.0000000  1.0000000 )


      isym =  5     inv. 180 deg rotation - cryst. axis [0,1,0]  

 cryst.   s( 5) = (     1          1          0      )
                  (     0         -1          0      )
                  (     0          0          1      )

 cart.    s( 5) = (  0.5000000  0.8660254 -0.0000000 )
                  (  0.8660254 -0.5000000  0.0000000 )
                  (  0.0000000  0.0000000  1.0000000 )


      isym =  6     inv. 180 deg rotation - cryst. axis [1,1,0]  

 cryst.   s( 6) = (     0         -1          0      )
                  (    -1          0          0      )
                  (     0          0          1      )

 cart.    s( 6) = (  0.5000000 -0.8660254  0.0000000 )
                  ( -0.8660254 -0.5000000  0.0000000 )
                  (  0.0000000  0.0000000  1.0000000 )


   Cartesian axes

     site n.     atom                  positions (alat units)
         1           Te  tau(   1) = (   0.0000000   0.0000000   1.4925396  )
         2           Te  tau(   2) = (  -0.0000000   0.5773503   0.6917672  )
         3           Te  tau(   3) = (   0.5000000   0.2886751   3.6782556  )
         4           Te  tau(   4) = (   0.0000000   0.0000000   2.8773701  )
         5           Te  tau(   5) = (  -0.0000000   0.5773503   5.8639701  )
         6           Te  tau(   6) = (   0.5000000   0.2886751   5.0631297  )
         7           In  tau(   7) = (   0.5000000   0.2886751   1.8370374  )
         8           In  tau(   8) = (   0.0000000   0.0000000   0.3456795  )
         9           In  tau(   9) = (  -0.0000000   0.5773503   4.0227610  )
        10           In  tau(  10) = (   0.5000000   0.2886751   2.5312973  )
        11           In  tau(  11) = (   0.0000000   0.0000000   6.2084730  )
        12           In  tau(  12) = (  -0.0000000   0.5773503   4.7170387  )

   Crystallographic axes

     site n.     atom                  positions (cryst. coord.)
         1           Te  tau(   1) = (  0.0000000  0.0000000  0.2276229  )
         2           Te  tau(   2) = (  0.3333333  0.6666667  0.1054994  )
         3           Te  tau(   3) = (  0.6666667  0.3333333  0.5609601  )
         4           Te  tau(   4) = (  0.0000000  0.0000000  0.4388193  )
         5           Te  tau(   5) = (  0.3333333  0.6666667  0.8942970  )
         6           Te  tau(   6) = (  0.6666667  0.3333333  0.7721632  )
         7           In  tau(   7) = (  0.6666667  0.3333333  0.2801612  )
         8           In  tau(   8) = (  0.0000000  0.0000000  0.0527186  )
         9           In  tau(   9) = (  0.3333333  0.6666667  0.6134996  )
        10           In  tau(  10) = (  0.6666667  0.3333333  0.3860408  )
        11           In  tau(  11) = ( -0.0000000  0.0000000  0.9468361  )
        12           In  tau(  12) = (  0.3333333  0.6666667  0.7193818  )

     number of k points=   160
                       cart. coord. in units 2pi/alat
        k(    1) = (   0.0000000   0.0000000   0.0762535), wk =   0.0062500
        k(    2) = (   0.0000000   0.0213833   0.0762535), wk =   0.0062500
        k(    3) = (   0.0000000   0.0427667   0.0762535), wk =   0.0062500
        k(    4) = (   0.0000000   0.0641500   0.0762535), wk =   0.0062500
        k(    5) = (   0.0000000   0.0855334   0.0762535), wk =   0.0062500
        k(    6) = (   0.0000000   0.1069167   0.0762535), wk =   0.0062500
        k(    7) = (   0.0000000   0.1283001   0.0762535), wk =   0.0062500
        k(    8) = (   0.0000000   0.1496834   0.0762535), wk =   0.0062500
        k(    9) = (   0.0000000   0.1710667   0.0762535), wk =   0.0062500
        k(   10) = (   0.0000000   0.1924501   0.0762535), wk =   0.0062500
        k(   11) = (   0.0000000   0.2138334   0.0762535), wk =   0.0062500
        k(   12) = (   0.0000000   0.2352168   0.0762535), wk =   0.0062500
        k(   13) = (   0.0000000   0.2566001   0.0762535), wk =   0.0062500
        k(   14) = (   0.0000000   0.2779835   0.0762535), wk =   0.0062500
        k(   15) = (   0.0000000   0.2993668   0.0762535), wk =   0.0062500
        k(   16) = (   0.0000000   0.3207501   0.0762535), wk =   0.0062500
        k(   17) = (   0.0000000   0.3421335   0.0762535), wk =   0.0062500
        k(   18) = (   0.0000000   0.3635168   0.0762535), wk =   0.0062500
        k(   19) = (   0.0000000   0.3849002   0.0762535), wk =   0.0062500
        k(   20) = (   0.0000000   0.4062835   0.0762535), wk =   0.0062500
        k(   21) = (   0.0000000   0.4276669   0.0762535), wk =   0.0062500
        k(   22) = (   0.0000000   0.4490502   0.0762535), wk =   0.0062500
        k(   23) = (   0.0000000   0.4704336   0.0762535), wk =   0.0062500
        k(   24) = (   0.0000000   0.4918169   0.0762535), wk =   0.0062500
        k(   25) = (   0.0000000   0.5132002   0.0762535), wk =   0.0062500
        k(   26) = (   0.0000000   0.5345836   0.0762535), wk =   0.0062500
        k(   27) = (   0.0000000   0.5559669   0.0762535), wk =   0.0062500
        k(   28) = (   0.0000000   0.5773503   0.0762535), wk =   0.0062500
        k(   29) = (   0.0222220   0.5773499   0.0762535), wk =   0.0062500
        k(   30) = (   0.0444440   0.5773495   0.0762535), wk =   0.0062500
        k(   31) = (   0.0666660   0.5773491   0.0762535), wk =   0.0062500
        k(   32) = (   0.0888880   0.5773487   0.0762535), wk =   0.0062500
        k(   33) = (   0.1111100   0.5773483   0.0762535), wk =   0.0062500
        k(   34) = (   0.1333320   0.5773480   0.0762535), wk =   0.0062500
        k(   35) = (   0.1555540   0.5773476   0.0762535), wk =   0.0062500
        k(   36) = (   0.1777760   0.5773472   0.0762535), wk =   0.0062500
        k(   37) = (   0.1999980   0.5773468   0.0762535), wk =   0.0062500
        k(   38) = (   0.2222200   0.5773464   0.0762535), wk =   0.0062500
        k(   39) = (   0.2444420   0.5773460   0.0762535), wk =   0.0062500
        k(   40) = (   0.2666640   0.5773457   0.0762535), wk =   0.0062500
        k(   41) = (   0.2888860   0.5773453   0.0762535), wk =   0.0062500
        k(   42) = (   0.3111080   0.5773449   0.0762535), wk =   0.0062500
        k(   43) = (   0.3333300   0.5773445   0.0762535), wk =   0.0062500
        k(   44) = (   0.3225774   0.5587205   0.0762535), wk =   0.0062500
        k(   45) = (   0.3118248   0.5400965   0.0762535), wk =   0.0062500
        k(   46) = (   0.3010723   0.5214724   0.0762535), wk =   0.0062500
        k(   47) = (   0.2903197   0.5028484   0.0762535), wk =   0.0062500
        k(   48) = (   0.2795671   0.4842244   0.0762535), wk =   0.0062500
        k(   49) = (   0.2688145   0.4656004   0.0762535), wk =   0.0062500
        k(   50) = (   0.2580619   0.4469764   0.0762535), wk =   0.0062500
        k(   51) = (   0.2473094   0.4283524   0.0762535), wk =   0.0062500
        k(   52) = (   0.2365568   0.4097284   0.0762535), wk =   0.0062500
        k(   53) = (   0.2258042   0.3911043   0.0762535), wk =   0.0062500
        k(   54) = (   0.2150516   0.3724803   0.0762535), wk =   0.0062500
        k(   55) = (   0.2042990   0.3538563   0.0762535), wk =   0.0062500
        k(   56) = (   0.1935465   0.3352323   0.0762535), wk =   0.0062500
        k(   57) = (   0.1827939   0.3166083   0.0762535), wk =   0.0062500
        k(   58) = (   0.1720413   0.2979843   0.0762535), wk =   0.0062500
        k(   59) = (   0.1612887   0.2793602   0.0762535), wk =   0.0062500
        k(   60) = (   0.1505361   0.2607362   0.0762535), wk =   0.0062500
        k(   61) = (   0.1397835   0.2421122   0.0762535), wk =   0.0062500
        k(   62) = (   0.1290310   0.2234882   0.0762535), wk =   0.0062500
        k(   63) = (   0.1182784   0.2048642   0.0762535), wk =   0.0062500
        k(   64) = (   0.1075258   0.1862402   0.0762535), wk =   0.0062500
        k(   65) = (   0.0967732   0.1676161   0.0762535), wk =   0.0062500
        k(   66) = (   0.0860206   0.1489921   0.0762535), wk =   0.0062500
        k(   67) = (   0.0752681   0.1303681   0.0762535), wk =   0.0062500
        k(   68) = (   0.0645155   0.1117441   0.0762535), wk =   0.0062500
        k(   69) = (   0.0537629   0.0931201   0.0762535), wk =   0.0062500
        k(   70) = (   0.0430103   0.0744961   0.0762535), wk =   0.0062500
        k(   71) = (   0.0322577   0.0558720   0.0762535), wk =   0.0062500
        k(   72) = (   0.0215052   0.0372480   0.0762535), wk =   0.0062500
        k(   73) = (   0.0107526   0.0186240   0.0762535), wk =   0.0062500
        k(   74) = (   0.0000000   0.0000000   0.0762535), wk =   0.0062500
        k(   75) = (   0.0000000   0.0000000   0.0508357), wk =   0.0062500
        k(   76) = (   0.0000000   0.0000000   0.0254178), wk =   0.0062500
        k(   77) = (   0.0000000   0.0000000   0.0000000), wk =   0.0062500
        k(   78) = (   0.0000000   0.0213833  -0.0000000), wk =   0.0062500
        k(   79) = (   0.0000000   0.0427667  -0.0000000), wk =   0.0062500
        k(   80) = (   0.0000000   0.0641500  -0.0000000), wk =   0.0062500
        k(   81) = (   0.0000000   0.0855334  -0.0000000), wk =   0.0062500
        k(   82) = (   0.0000000   0.1069167  -0.0000000), wk =   0.0062500
        k(   83) = (   0.0000000   0.1283001  -0.0000000), wk =   0.0062500
        k(   84) = (   0.0000000   0.1496834  -0.0000000), wk =   0.0062500
        k(   85) = (   0.0000000   0.1710667  -0.0000000), wk =   0.0062500
        k(   86) = (   0.0000000   0.1924501  -0.0000000), wk =   0.0062500
        k(   87) = (   0.0000000   0.2138334  -0.0000000), wk =   0.0062500
        k(   88) = (   0.0000000   0.2352168  -0.0000000), wk =   0.0062500
        k(   89) = (   0.0000000   0.2566001  -0.0000000), wk =   0.0062500
        k(   90) = (   0.0000000   0.2779835  -0.0000000), wk =   0.0062500
        k(   91) = (   0.0000000   0.2993668  -0.0000000), wk =   0.0062500
        k(   92) = (   0.0000000   0.3207501  -0.0000000), wk =   0.0062500
        k(   93) = (   0.0000000   0.3421335  -0.0000000), wk =   0.0062500
        k(   94) = (   0.0000000   0.3635168  -0.0000000), wk =   0.0062500
        k(   95) = (   0.0000000   0.3849002  -0.0000000), wk =   0.0062500
        k(   96) = (   0.0000000   0.4062835  -0.0000000), wk =   0.0062500
        k(   97) = (   0.0000000   0.4276669  -0.0000000), wk =   0.0062500
        k(   98) = (   0.0000000   0.4490502  -0.0000000), wk =   0.0062500
        k(   99) = (   0.0000000   0.4704336  -0.0000000), wk =   0.0062500
        k(  100) = (   0.0000000   0.4918169  -0.0000000), wk =   0.0062500
        k(  101) = (   0.0000000   0.5132002  -0.0000000), wk =   0.0062500
        k(  102) = (   0.0000000   0.5345836  -0.0000000), wk =   0.0062500
        k(  103) = (   0.0000000   0.5559669  -0.0000000), wk =   0.0062500
        k(  104) = (   0.0000000   0.5773503  -0.0000000), wk =   0.0062500
        k(  105) = (   0.0222220   0.5773499  -0.0000000), wk =   0.0062500
        k(  106) = (   0.0444440   0.5773495  -0.0000000), wk =   0.0062500
        k(  107) = (   0.0666660   0.5773491  -0.0000000), wk =   0.0062500
        k(  108) = (   0.0888880   0.5773487  -0.0000000), wk =   0.0062500
        k(  109) = (   0.1111100   0.5773483  -0.0000000), wk =   0.0062500
        k(  110) = (   0.1333320   0.5773480  -0.0000000), wk =   0.0062500
        k(  111) = (   0.1555540   0.5773476  -0.0000000), wk =   0.0062500
        k(  112) = (   0.1777760   0.5773472  -0.0000000), wk =   0.0062500
        k(  113) = (   0.1999980   0.5773468  -0.0000000), wk =   0.0062500
        k(  114) = (   0.2222200   0.5773464  -0.0000000), wk =   0.0062500
        k(  115) = (   0.2444420   0.5773460  -0.0000000), wk =   0.0062500
        k(  116) = (   0.2666640   0.5773457  -0.0000000), wk =   0.0062500
        k(  117) = (   0.2888860   0.5773453  -0.0000000), wk =   0.0062500
        k(  118) = (   0.3111080   0.5773449  -0.0000000), wk =   0.0062500
        k(  119) = (   0.3333300   0.5773445  -0.0000000), wk =   0.0062500
        k(  120) = (   0.3225774   0.5587205  -0.0000000), wk =   0.0062500
        k(  121) = (   0.3118248   0.5400965  -0.0000000), wk =   0.0062500
        k(  122) = (   0.3010723   0.5214724  -0.0000000), wk =   0.0062500
        k(  123) = (   0.2903197   0.5028484  -0.0000000), wk =   0.0062500
        k(  124) = (   0.2795671   0.4842244  -0.0000000), wk =   0.0062500
        k(  125) = (   0.2688145   0.4656004  -0.0000000), wk =   0.0062500
        k(  126) = (   0.2580619   0.4469764  -0.0000000), wk =   0.0062500
        k(  127) = (   0.2473094   0.4283524  -0.0000000), wk =   0.0062500
        k(  128) = (   0.2365568   0.4097284  -0.0000000), wk =   0.0062500
        k(  129) = (   0.2258042   0.3911043  -0.0000000), wk =   0.0062500
        k(  130) = (   0.2150516   0.3724803  -0.0000000), wk =   0.0062500
        k(  131) = (   0.2042990   0.3538563  -0.0000000), wk =   0.0062500
        k(  132) = (   0.1935465   0.3352323  -0.0000000), wk =   0.0062500
        k(  133) = (   0.1827939   0.3166083  -0.0000000), wk =   0.0062500
        k(  134) = (   0.1720413   0.2979843  -0.0000000), wk =   0.0062500
        k(  135) = (   0.1612887   0.2793602  -0.0000000), wk =   0.0062500
        k(  136) = (   0.1505361   0.2607362  -0.0000000), wk =   0.0062500
        k(  137) = (   0.1397835   0.2421122  -0.0000000), wk =   0.0062500
        k(  138) = (   0.1290310   0.2234882  -0.0000000), wk =   0.0062500
        k(  139) = (   0.1182784   0.2048642  -0.0000000), wk =   0.0062500
        k(  140) = (   0.1075258   0.1862402  -0.0000000), wk =   0.0062500
        k(  141) = (   0.0967732   0.1676161  -0.0000000), wk =   0.0062500
        k(  142) = (   0.0860206   0.1489921  -0.0000000), wk =   0.0062500
        k(  143) = (   0.0752681   0.1303681  -0.0000000), wk =   0.0062500
        k(  144) = (   0.0645155   0.1117441  -0.0000000), wk =   0.0062500
        k(  145) = (   0.0537629   0.0931201  -0.0000000), wk =   0.0062500
        k(  146) = (   0.0430103   0.0744961  -0.0000000), wk =   0.0062500
        k(  147) = (   0.0322577   0.0558720  -0.0000000), wk =   0.0062500
        k(  148) = (   0.0215052   0.0372480  -0.0000000), wk =   0.0062500
        k(  149) = (   0.0107526   0.0186240  -0.0000000), wk =   0.0062500
        k(  150) = (   0.0000000   0.0000000   0.0000000), wk =   0.0062500
        k(  151) = (   0.0000000   0.5773503   0.0762535), wk =   0.0062500
        k(  152) = (   0.0000000   0.5773503   0.0571902), wk =   0.0062500
        k(  153) = (   0.0000000   0.5773503   0.0381268), wk =   0.0062500
        k(  154) = (   0.0000000   0.5773503   0.0190634), wk =   0.0062500
        k(  155) = (   0.0000000   0.5773503  -0.0000000), wk =   0.0062500
        k(  156) = (   0.3333300   0.5773445   0.0762535), wk =   0.0062500
        k(  157) = (   0.3333300   0.5773445   0.0571902), wk =   0.0062500
        k(  158) = (   0.3333300   0.5773445   0.0381268), wk =   0.0062500
        k(  159) = (   0.3333300   0.5773445   0.0190634), wk =   0.0062500
        k(  160) = (   0.3333300   0.5773445  -0.0000000), wk =   0.0062500

                       cryst. coord.
        k(    1) = (   0.0000000   0.0000000   0.5000000), wk =   0.0062500
        k(    2) = (   0.0000000   0.0185185   0.5000000), wk =   0.0062500
        k(    3) = (   0.0000000   0.0370370   0.5000000), wk =   0.0062500
        k(    4) = (   0.0000000   0.0555556   0.5000000), wk =   0.0062500
        k(    5) = (   0.0000000   0.0740741   0.5000000), wk =   0.0062500
        k(    6) = (   0.0000000   0.0925926   0.5000000), wk =   0.0062500
        k(    7) = (   0.0000000   0.1111111   0.5000000), wk =   0.0062500
        k(    8) = (   0.0000000   0.1296296   0.5000000), wk =   0.0062500
        k(    9) = (   0.0000000   0.1481481   0.5000000), wk =   0.0062500
        k(   10) = (   0.0000000   0.1666667   0.5000000), wk =   0.0062500
        k(   11) = (   0.0000000   0.1851852   0.5000000), wk =   0.0062500
        k(   12) = (   0.0000000   0.2037037   0.5000000), wk =   0.0062500
        k(   13) = (   0.0000000   0.2222222   0.5000000), wk =   0.0062500
        k(   14) = (   0.0000000   0.2407407   0.5000000), wk =   0.0062500
        k(   15) = (   0.0000000   0.2592593   0.5000000), wk =   0.0062500
        k(   16) = (   0.0000000   0.2777778   0.5000000), wk =   0.0062500
        k(   17) = (   0.0000000   0.2962963   0.5000000), wk =   0.0062500
        k(   18) = (   0.0000000   0.3148148   0.5000000), wk =   0.0062500
        k(   19) = (   0.0000000   0.3333333   0.5000000), wk =   0.0062500
        k(   20) = (   0.0000000   0.3518519   0.5000000), wk =   0.0062500
        k(   21) = (   0.0000000   0.3703704   0.5000000), wk =   0.0062500
        k(   22) = (   0.0000000   0.3888889   0.5000000), wk =   0.0062500
        k(   23) = (   0.0000000   0.4074074   0.5000000), wk =   0.0062500
        k(   24) = (   0.0000000   0.4259259   0.5000000), wk =   0.0062500
        k(   25) = (   0.0000000   0.4444444   0.5000000), wk =   0.0062500
        k(   26) = (   0.0000000   0.4629630   0.5000000), wk =   0.0062500
        k(   27) = (   0.0000000   0.4814815   0.5000000), wk =   0.0062500
        k(   28) = (   0.0000000   0.5000000   0.5000000), wk =   0.0062500
        k(   29) = (   0.0222220   0.4888887   0.5000000), wk =   0.0062500
        k(   30) = (   0.0444440   0.4777773   0.5000000), wk =   0.0062500
        k(   31) = (   0.0666660   0.4666660   0.5000000), wk =   0.0062500
        k(   32) = (   0.0888880   0.4555547   0.5000000), wk =   0.0062500
        k(   33) = (   0.1111100   0.4444433   0.5000000), wk =   0.0062500
        k(   34) = (   0.1333320   0.4333320   0.5000000), wk =   0.0062500
        k(   35) = (   0.1555540   0.4222207   0.5000000), wk =   0.0062500
        k(   36) = (   0.1777760   0.4111093   0.5000000), wk =   0.0062500
        k(   37) = (   0.1999980   0.3999980   0.5000000), wk =   0.0062500
        k(   38) = (   0.2222200   0.3888867   0.5000000), wk =   0.0062500
        k(   39) = (   0.2444420   0.3777753   0.5000000), wk =   0.0062500
        k(   40) = (   0.2666640   0.3666640   0.5000000), wk =   0.0062500
        k(   41) = (   0.2888860   0.3555527   0.5000000), wk =   0.0062500
        k(   42) = (   0.3111080   0.3444413   0.5000000), wk =   0.0062500
        k(   43) = (   0.3333300   0.3333300   0.5000000), wk =   0.0062500
        k(   44) = (   0.3225774   0.3225774   0.5000000), wk =   0.0062500
        k(   45) = (   0.3118248   0.3118248   0.5000000), wk =   0.0062500
        k(   46) = (   0.3010723   0.3010723   0.5000000), wk =   0.0062500
        k(   47) = (   0.2903197   0.2903197   0.5000000), wk =   0.0062500
        k(   48) = (   0.2795671   0.2795671   0.5000000), wk =   0.0062500
        k(   49) = (   0.2688145   0.2688145   0.5000000), wk =   0.0062500
        k(   50) = (   0.2580619   0.2580619   0.5000000), wk =   0.0062500
        k(   51) = (   0.2473094   0.2473094   0.5000000), wk =   0.0062500
        k(   52) = (   0.2365568   0.2365568   0.5000000), wk =   0.0062500
        k(   53) = (   0.2258042   0.2258042   0.5000000), wk =   0.0062500
        k(   54) = (   0.2150516   0.2150516   0.5000000), wk =   0.0062500
        k(   55) = (   0.2042990   0.2042990   0.5000000), wk =   0.0062500
        k(   56) = (   0.1935465   0.1935465   0.5000000), wk =   0.0062500
        k(   57) = (   0.1827939   0.1827939   0.5000000), wk =   0.0062500
        k(   58) = (   0.1720413   0.1720413   0.5000000), wk =   0.0062500
        k(   59) = (   0.1612887   0.1612887   0.5000000), wk =   0.0062500
        k(   60) = (   0.1505361   0.1505361   0.5000000), wk =   0.0062500
        k(   61) = (   0.1397835   0.1397835   0.5000000), wk =   0.0062500
        k(   62) = (   0.1290310   0.1290310   0.5000000), wk =   0.0062500
        k(   63) = (   0.1182784   0.1182784   0.5000000), wk =   0.0062500
        k(   64) = (   0.1075258   0.1075258   0.5000000), wk =   0.0062500
        k(   65) = (   0.0967732   0.0967732   0.5000000), wk =   0.0062500
        k(   66) = (   0.0860206   0.0860206   0.5000000), wk =   0.0062500
        k(   67) = (   0.0752681   0.0752681   0.5000000), wk =   0.0062500
        k(   68) = (   0.0645155   0.0645155   0.5000000), wk =   0.0062500
        k(   69) = (   0.0537629   0.0537629   0.5000000), wk =   0.0062500
        k(   70) = (   0.0430103   0.0430103   0.5000000), wk =   0.0062500
        k(   71) = (   0.0322577   0.0322577   0.5000000), wk =   0.0062500
        k(   72) = (   0.0215052   0.0215052   0.5000000), wk =   0.0062500
        k(   73) = (   0.0107526   0.0107526   0.5000000), wk =   0.0062500
        k(   74) = (   0.0000000   0.0000000   0.5000000), wk =   0.0062500
        k(   75) = (   0.0000000   0.0000000   0.3333333), wk =   0.0062500
        k(   76) = (   0.0000000   0.0000000   0.1666667), wk =   0.0062500
        k(   77) = (   0.0000000   0.0000000   0.0000000), wk =   0.0062500
        k(   78) = (   0.0000000   0.0185185   0.0000000), wk =   0.0062500
        k(   79) = (   0.0000000   0.0370370   0.0000000), wk =   0.0062500
        k(   80) = (   0.0000000   0.0555556   0.0000000), wk =   0.0062500
        k(   81) = (   0.0000000   0.0740741   0.0000000), wk =   0.0062500
        k(   82) = (   0.0000000   0.0925926   0.0000000), wk =   0.0062500
        k(   83) = (   0.0000000   0.1111111   0.0000000), wk =   0.0062500
        k(   84) = (   0.0000000   0.1296296   0.0000000), wk =   0.0062500
        k(   85) = (   0.0000000   0.1481481   0.0000000), wk =   0.0062500
        k(   86) = (   0.0000000   0.1666667   0.0000000), wk =   0.0062500
        k(   87) = (   0.0000000   0.1851852   0.0000000), wk =   0.0062500
        k(   88) = (   0.0000000   0.2037037   0.0000000), wk =   0.0062500
        k(   89) = (   0.0000000   0.2222222   0.0000000), wk =   0.0062500
        k(   90) = (   0.0000000   0.2407407   0.0000000), wk =   0.0062500
        k(   91) = (   0.0000000   0.2592593   0.0000000), wk =   0.0062500
        k(   92) = (   0.0000000   0.2777778   0.0000000), wk =   0.0062500
        k(   93) = (   0.0000000   0.2962963   0.0000000), wk =   0.0062500
        k(   94) = (   0.0000000   0.3148148   0.0000000), wk =   0.0062500
        k(   95) = (   0.0000000   0.3333333   0.0000000), wk =   0.0062500
        k(   96) = (   0.0000000   0.3518519   0.0000000), wk =   0.0062500
        k(   97) = (   0.0000000   0.3703704   0.0000000), wk =   0.0062500
        k(   98) = (   0.0000000   0.3888889   0.0000000), wk =   0.0062500
        k(   99) = (   0.0000000   0.4074074   0.0000000), wk =   0.0062500
        k(  100) = (   0.0000000   0.4259259   0.0000000), wk =   0.0062500
        k(  101) = (   0.0000000   0.4444444   0.0000000), wk =   0.0062500
        k(  102) = (   0.0000000   0.4629630   0.0000000), wk =   0.0062500
        k(  103) = (   0.0000000   0.4814815   0.0000000), wk =   0.0062500
        k(  104) = (   0.0000000   0.5000000   0.0000000), wk =   0.0062500
        k(  105) = (   0.0222220   0.4888887   0.0000000), wk =   0.0062500
        k(  106) = (   0.0444440   0.4777773  -0.0000000), wk =   0.0062500
        k(  107) = (   0.0666660   0.4666660  -0.0000000), wk =   0.0062500
        k(  108) = (   0.0888880   0.4555547   0.0000000), wk =   0.0062500
        k(  109) = (   0.1111100   0.4444433   0.0000000), wk =   0.0062500
        k(  110) = (   0.1333320   0.4333320   0.0000000), wk =   0.0062500
        k(  111) = (   0.1555540   0.4222207   0.0000000), wk =   0.0062500
        k(  112) = (   0.1777760   0.4111093   0.0000000), wk =   0.0062500
        k(  113) = (   0.1999980   0.3999980   0.0000000), wk =   0.0062500
        k(  114) = (   0.2222200   0.3888867   0.0000000), wk =   0.0062500
        k(  115) = (   0.2444420   0.3777753  -0.0000000), wk =   0.0062500
        k(  116) = (   0.2666640   0.3666640  -0.0000000), wk =   0.0062500
        k(  117) = (   0.2888860   0.3555527   0.0000000), wk =   0.0062500
        k(  118) = (   0.3111080   0.3444413   0.0000000), wk =   0.0062500
        k(  119) = (   0.3333300   0.3333300  -0.0000000), wk =   0.0062500
        k(  120) = (   0.3225774   0.3225774   0.0000000), wk =   0.0062500
        k(  121) = (   0.3118248   0.3118248   0.0000000), wk =   0.0062500
        k(  122) = (   0.3010723   0.3010723   0.0000000), wk =   0.0062500
        k(  123) = (   0.2903197   0.2903197  -0.0000000), wk =   0.0062500
        k(  124) = (   0.2795671   0.2795671   0.0000000), wk =   0.0062500
        k(  125) = (   0.2688145   0.2688145   0.0000000), wk =   0.0062500
        k(  126) = (   0.2580619   0.2580619   0.0000000), wk =   0.0062500
        k(  127) = (   0.2473094   0.2473094   0.0000000), wk =   0.0062500
        k(  128) = (   0.2365568   0.2365568   0.0000000), wk =   0.0062500
        k(  129) = (   0.2258042   0.2258042   0.0000000), wk =   0.0062500
        k(  130) = (   0.2150516   0.2150516   0.0000000), wk =   0.0062500
        k(  131) = (   0.2042990   0.2042990   0.0000000), wk =   0.0062500
        k(  132) = (   0.1935465   0.1935465   0.0000000), wk =   0.0062500
        k(  133) = (   0.1827939   0.1827939   0.0000000), wk =   0.0062500
        k(  134) = (   0.1720413   0.1720413   0.0000000), wk =   0.0062500
        k(  135) = (   0.1612887   0.1612887   0.0000000), wk =   0.0062500
        k(  136) = (   0.1505361   0.1505361   0.0000000), wk =   0.0062500
        k(  137) = (   0.1397835   0.1397835   0.0000000), wk =   0.0062500
        k(  138) = (   0.1290310   0.1290310  -0.0000000), wk =   0.0062500
        k(  139) = (   0.1182784   0.1182784   0.0000000), wk =   0.0062500
        k(  140) = (   0.1075258   0.1075258   0.0000000), wk =   0.0062500
        k(  141) = (   0.0967732   0.0967732   0.0000000), wk =   0.0062500
        k(  142) = (   0.0860206   0.0860206  -0.0000000), wk =   0.0062500
        k(  143) = (   0.0752681   0.0752681   0.0000000), wk =   0.0062500
        k(  144) = (   0.0645155   0.0645155  -0.0000000), wk =   0.0062500
        k(  145) = (   0.0537629   0.0537629  -0.0000000), wk =   0.0062500
        k(  146) = (   0.0430103   0.0430103  -0.0000000), wk =   0.0062500
        k(  147) = (   0.0322577   0.0322577  -0.0000000), wk =   0.0062500
        k(  148) = (   0.0215052   0.0215052  -0.0000000), wk =   0.0062500
        k(  149) = (   0.0107526   0.0107526  -0.0000000), wk =   0.0062500
        k(  150) = (   0.0000000   0.0000000   0.0000000), wk =   0.0062500
        k(  151) = (   0.0000000   0.5000000   0.5000000), wk =   0.0062500
        k(  152) = (   0.0000000   0.5000000   0.3750000), wk =   0.0062500
        k(  153) = (   0.0000000   0.5000000   0.2500000), wk =   0.0062500
        k(  154) = (   0.0000000   0.5000000   0.1250000), wk =   0.0062500
        k(  155) = (   0.0000000   0.5000000   0.0000000), wk =   0.0062500
        k(  156) = (   0.3333300   0.3333300   0.5000000), wk =   0.0062500
        k(  157) = (   0.3333300   0.3333300   0.3750000), wk =   0.0062500
        k(  158) = (   0.3333300   0.3333300   0.2500000), wk =   0.0062500
        k(  159) = (   0.3333300   0.3333300   0.1250000), wk =   0.0062500
        k(  160) = (   0.3333300   0.3333300  -0.0000000), wk =   0.0062500

     Dense  grid:   760893 G-vectors     FFT dimensions: (  64,  64, 432)

     Estimated max dynamical RAM per process >      60.84MB

     Estimated total allocated dynamical RAM >    2920.54MB

     The potential is recalculated from file :
     /share/inl/marcel/TB-SO/InTegamma_outdir/InTegamma.save/charge-density.dat

     Starting wfc are  216 randomized atomic wfcs

     Band Structure Calculation
     Davidson diagonalization with overlap

     Computing kpt #:     1
     total cpu time spent up to now is       16.6 secs

     Computing kpt #:     2
     total cpu time spent up to now is       31.5 secs

     Computing kpt #:     3
     total cpu time spent up to now is       46.6 secs

     Computing kpt #:     4
     total cpu time spent up to now is       61.5 secs

     Computing kpt #:     5
     total cpu time spent up to now is       76.8 secs

     Computing kpt #:     6
     total cpu time spent up to now is       91.9 secs

     Computing kpt #:     7
     total cpu time spent up to now is      106.9 secs

     Computing kpt #:     8
     total cpu time spent up to now is      123.6 secs

     Computing kpt #:     9
     total cpu time spent up to now is      138.5 secs

     Computing kpt #:    10
     total cpu time spent up to now is      153.6 secs

     Computing kpt #:    11
     total cpu time spent up to now is      168.4 secs

     Computing kpt #:    12
     total cpu time spent up to now is      183.4 secs

     Computing kpt #:    13
     total cpu time spent up to now is      198.9 secs

     Computing kpt #:    14
     total cpu time spent up to now is      214.0 secs

     Computing kpt #:    15
     total cpu time spent up to now is      228.9 secs

     Computing kpt #:    16
     total cpu time spent up to now is      243.8 secs

     Computing kpt #:    17
     total cpu time spent up to now is      259.2 secs

     Computing kpt #:    18
     total cpu time spent up to now is      274.1 secs

     Computing kpt #:    19
     total cpu time spent up to now is      289.2 secs

     Computing kpt #:    20
     total cpu time spent up to now is      304.2 secs

     Computing kpt #:    21
     total cpu time spent up to now is      319.4 secs

     Computing kpt #:    22
     total cpu time spent up to now is      334.6 secs

     Computing kpt #:    23
     total cpu time spent up to now is      349.7 secs

     Computing kpt #:    24
     total cpu time spent up to now is      364.7 secs

     Computing kpt #:    25
     total cpu time spent up to now is      379.6 secs

     Computing kpt #:    26
     total cpu time spent up to now is      394.5 secs

     Computing kpt #:    27
     total cpu time spent up to now is      409.7 secs

     Computing kpt #:    28
     total cpu time spent up to now is      425.0 secs

     Computing kpt #:    29
     total cpu time spent up to now is      440.1 secs

     Computing kpt #:    30
     total cpu time spent up to now is      455.1 secs

     Computing kpt #:    31
     total cpu time spent up to now is      470.3 secs

     Computing kpt #:    32
     total cpu time spent up to now is      485.4 secs

     Computing kpt #:    33
     total cpu time spent up to now is      500.2 secs

     Computing kpt #:    34
     total cpu time spent up to now is      515.3 secs

     Computing kpt #:    35
     total cpu time spent up to now is      530.7 secs

     Computing kpt #:    36
     total cpu time spent up to now is      545.8 secs

     Computing kpt #:    37
     total cpu time spent up to now is      561.2 secs

     Computing kpt #:    38
     total cpu time spent up to now is      577.2 secs

     Computing kpt #:    39
     total cpu time spent up to now is      592.1 secs

     Computing kpt #:    40
     total cpu time spent up to now is      607.8 secs

     Computing kpt #:    41
     total cpu time spent up to now is      622.8 secs

     Computing kpt #:    42
     total cpu time spent up to now is      638.1 secs

     Computing kpt #:    43
     total cpu time spent up to now is      653.2 secs

     Computing kpt #:    44
     total cpu time spent up to now is      668.3 secs

     Computing kpt #:    45
     total cpu time spent up to now is      683.3 secs

     Computing kpt #:    46
     total cpu time spent up to now is      698.7 secs

     Computing kpt #:    47
     total cpu time spent up to now is      714.0 secs

     Computing kpt #:    48
     total cpu time spent up to now is      729.1 secs

     Computing kpt #:    49
     total cpu time spent up to now is      743.8 secs

     Computing kpt #:    50
     total cpu time spent up to now is      758.9 secs

     Computing kpt #:    51
     total cpu time spent up to now is      773.9 secs

     Computing kpt #:    52
     total cpu time spent up to now is      789.0 secs

     Computing kpt #:    53
     total cpu time spent up to now is      804.2 secs

     Computing kpt #:    54
     total cpu time spent up to now is      819.3 secs

     Computing kpt #:    55
     total cpu time spent up to now is      834.9 secs

     Computing kpt #:    56
     total cpu time spent up to now is      849.9 secs

     Computing kpt #:    57
     total cpu time spent up to now is      864.8 secs

     Computing kpt #:    58
     total cpu time spent up to now is      880.0 secs

     Computing kpt #:    59
     total cpu time spent up to now is      895.0 secs

     Computing kpt #:    60
     total cpu time spent up to now is      910.2 secs

     Computing kpt #:    61
     total cpu time spent up to now is      925.3 secs

     Computing kpt #:    62
     total cpu time spent up to now is      940.5 secs

     Computing kpt #:    63
     total cpu time spent up to now is      955.7 secs

     Computing kpt #:    64
     total cpu time spent up to now is      970.8 secs

     Computing kpt #:    65
     total cpu time spent up to now is      985.9 secs

     Computing kpt #:    66
     total cpu time spent up to now is     1001.3 secs

     Computing kpt #:    67
     total cpu time spent up to now is     1016.5 secs

     Computing kpt #:    68
     total cpu time spent up to now is     1031.7 secs

     Computing kpt #:    69
     total cpu time spent up to now is     1047.3 secs

     Computing kpt #:    70
     total cpu time spent up to now is     1062.5 secs

     Computing kpt #:    71
     total cpu time spent up to now is     1077.9 secs

     Computing kpt #:    72
     total cpu time spent up to now is     1093.2 secs

     Computing kpt #:    73
     total cpu time spent up to now is     1108.5 secs

     Computing kpt #:    74
     total cpu time spent up to now is     1123.8 secs

     Computing kpt #:    75
     total cpu time spent up to now is     1139.2 secs

     Computing kpt #:    76
     total cpu time spent up to now is     1154.6 secs

     Computing kpt #:    77
     total cpu time spent up to now is     1170.0 secs

     Computing kpt #:    78
     total cpu time spent up to now is     1185.4 secs

     Computing kpt #:    79
     total cpu time spent up to now is     1200.8 secs

     Computing kpt #:    80
     total cpu time spent up to now is     1216.2 secs

     Computing kpt #:    81
     total cpu time spent up to now is     1231.3 secs

     Computing kpt #:    82
     total cpu time spent up to now is     1246.6 secs

     Computing kpt #:    83
     total cpu time spent up to now is     1261.8 secs

     Computing kpt #:    84
     total cpu time spent up to now is     1277.1 secs

     Computing kpt #:    85
     total cpu time spent up to now is     1292.2 secs

     Computing kpt #:    86
     total cpu time spent up to now is     1308.1 secs

     Computing kpt #:    87
     total cpu time spent up to now is     1323.5 secs

     Computing kpt #:    88
     total cpu time spent up to now is     1338.9 secs

     Computing kpt #:    89
     total cpu time spent up to now is     1354.0 secs

     Computing kpt #:    90
     total cpu time spent up to now is     1369.4 secs

     Computing kpt #:    91
     total cpu time spent up to now is     1384.8 secs

     Computing kpt #:    92
     total cpu time spent up to now is     1400.1 secs

     Computing kpt #:    93
     total cpu time spent up to now is     1415.6 secs

     Computing kpt #:    94
     total cpu time spent up to now is     1431.3 secs

     Computing kpt #:    95
     total cpu time spent up to now is     1446.9 secs

     Computing kpt #:    96
     total cpu time spent up to now is     1462.0 secs

     Computing kpt #:    97
     total cpu time spent up to now is     1477.2 secs

     Computing kpt #:    98
     total cpu time spent up to now is     1492.3 secs

     Computing kpt #:    99
     total cpu time spent up to now is     1507.6 secs

     Computing kpt #:   100
     total cpu time spent up to now is     1523.4 secs

     Computing kpt #:   101
     total cpu time spent up to now is     1538.6 secs

     Computing kpt #:   102
     total cpu time spent up to now is     1554.4 secs

     Computing kpt #:   103
     total cpu time spent up to now is     1569.9 secs

     Computing kpt #:   104
     total cpu time spent up to now is     1585.3 secs

     Computing kpt #:   105
     total cpu time spent up to now is     1600.4 secs

     Computing kpt #:   106
     total cpu time spent up to now is     1615.8 secs

     Computing kpt #:   107
     total cpu time spent up to now is     1631.0 secs

     Computing kpt #:   108
     total cpu time spent up to now is     1646.2 secs

     Computing kpt #:   109
     total cpu time spent up to now is     1661.4 secs

     Computing kpt #:   110
     total cpu time spent up to now is     1676.5 secs

     Computing kpt #:   111
     total cpu time spent up to now is     1692.2 secs

     Computing kpt #:   112
     total cpu time spent up to now is     1708.2 secs

     Computing kpt #:   113
     total cpu time spent up to now is     1723.6 secs

     Computing kpt #:   114
     total cpu time spent up to now is     1738.9 secs

     Computing kpt #:   115
     total cpu time spent up to now is     1754.5 secs

     Computing kpt #:   116
     total cpu time spent up to now is     1769.5 secs

     Computing kpt #:   117
     total cpu time spent up to now is     1784.8 secs

     Computing kpt #:   118
     total cpu time spent up to now is     1800.0 secs

     Computing kpt #:   119
     total cpu time spent up to now is     1815.3 secs

     Computing kpt #:   120
     total cpu time spent up to now is     1830.5 secs

     Computing kpt #:   121
     total cpu time spent up to now is     1846.0 secs

     Computing kpt #:   122
     total cpu time spent up to now is     1861.4 secs

     Computing kpt #:   123
     total cpu time spent up to now is     1876.9 secs

     Computing kpt #:   124
     total cpu time spent up to now is     1892.0 secs

     Computing kpt #:   125
     total cpu time spent up to now is     1907.1 secs

     Computing kpt #:   126
     total cpu time spent up to now is     1922.2 secs

     Computing kpt #:   127
     total cpu time spent up to now is     1937.2 secs

     Computing kpt #:   128
     total cpu time spent up to now is     1952.2 secs

     Computing kpt #:   129
     total cpu time spent up to now is     1967.2 secs

     Computing kpt #:   130
     total cpu time spent up to now is     1982.4 secs

     Computing kpt #:   131
     total cpu time spent up to now is     1997.8 secs

     Computing kpt #:   132
     total cpu time spent up to now is     2012.8 secs

     Computing kpt #:   133
     total cpu time spent up to now is     2027.8 secs

     Computing kpt #:   134
     total cpu time spent up to now is     2042.9 secs

     Computing kpt #:   135
     total cpu time spent up to now is     2058.0 secs

     Computing kpt #:   136
     total cpu time spent up to now is     2073.1 secs

     Computing kpt #:   137
     total cpu time spent up to now is     2088.1 secs

     Computing kpt #:   138
     total cpu time spent up to now is     2103.5 secs

     Computing kpt #:   139
     total cpu time spent up to now is     2118.9 secs

     Computing kpt #:   140
     total cpu time spent up to now is     2134.1 secs

     Computing kpt #:   141
     total cpu time spent up to now is     2150.1 secs

     Computing kpt #:   142
     total cpu time spent up to now is     2165.6 secs

     Computing kpt #:   143
     total cpu time spent up to now is     2180.8 secs

     Computing kpt #:   144
     total cpu time spent up to now is     2196.0 secs

     Computing kpt #:   145
     total cpu time spent up to now is     2211.2 secs

     Computing kpt #:   146
     total cpu time spent up to now is     2226.9 secs

     Computing kpt #:   147
     total cpu time spent up to now is     2242.3 secs

     Computing kpt #:   148
     total cpu time spent up to now is     2257.9 secs

     Computing kpt #:   149
     total cpu time spent up to now is     2273.2 secs

     Computing kpt #:   150
     total cpu time spent up to now is     2288.5 secs

     Computing kpt #:   151
     total cpu time spent up to now is     2303.8 secs

     Computing kpt #:   152
     total cpu time spent up to now is     2319.2 secs

     Computing kpt #:   153
     total cpu time spent up to now is     2334.4 secs

     Computing kpt #:   154
     total cpu time spent up to now is     2349.7 secs

     Computing kpt #:   155
     total cpu time spent up to now is     2365.1 secs

     Computing kpt #:   156
     total cpu time spent up to now is     2380.2 secs

     Computing kpt #:   157
     total cpu time spent up to now is     2395.4 secs

     Computing kpt #:   158
     total cpu time spent up to now is     2410.7 secs

     Computing kpt #:   159
     total cpu time spent up to now is     2426.0 secs

     Computing kpt #:   160
     total cpu time spent up to now is     2441.1 secs

     ethr =  4.02E-13,  avg # of iterations = 15.2

     total cpu time spent up to now is     2441.1 secs

     End of band structure calculation

          k = 0.0000 0.0000 0.0763 ( 95032 PWs)   bands (ev):

   -30.0470 -30.0470 -30.0470 -30.0470 -30.0469 -30.0469 -30.0363 -30.0363
   -30.0362 -30.0362 -30.0362 -30.0362 -30.0211 -30.0211 -30.0211 -30.0211
   -30.0210 -30.0210 -30.0119 -30.0119 -30.0118 -30.0118 -30.0117 -30.0117
   -28.5903 -28.5903 -28.5903 -28.5903 -28.5902 -28.5902 -28.5793 -28.5793
   -28.5792 -28.5792 -28.5791 -28.5791 -28.5681 -28.5681 -28.5681 -28.5681
   -28.5680 -28.5680 -28.5584 -28.5584 -28.5583 -28.5583 -28.5582 -28.5582
   -28.5561 -28.5561 -28.5561 -28.5561 -28.5560 -28.5560 -28.5469 -28.5469
   -28.5468 -28.5468 -28.5468 -28.5468  -7.7837  -7.7837  -7.7837  -7.7837
    -7.7835  -7.7835  -7.7678  -7.7678  -7.7678  -7.7678  -7.7677  -7.7677
    -7.7544  -7.7544  -7.7543  -7.7543  -7.7541  -7.7541  -7.7276  -7.7276
    -7.7275  -7.7275  -7.7273  -7.7273  -6.9616  -6.9616  -6.9615  -6.9615
    -6.9614  -6.9614  -6.9424  -6.9424  -6.9424  -6.9424  -6.9422  -6.9422
    -6.9288  -6.9288  -6.9288  -6.9288  -6.9286  -6.9286  -6.8970  -6.8970
    -6.8969  -6.8969  -6.8968  -6.8968  -6.8327  -6.8327  -6.8326  -6.8326
    -6.8325  -6.8325  -6.8070  -6.8070  -6.8069  -6.8069  -6.8067  -6.8067

          k = 0.0000 0.0214 0.0763 ( 95056 PWs)   bands (ev):

   -30.0470 -30.0470 -30.0470 -30.0470 -30.0469 -30.0469 -30.0363 -30.0363
   -30.0362 -30.0362 -30.0362 -30.0362 -30.0211 -30.0211 -30.0211 -30.0211
   -30.0210 -30.0210 -30.0119 -30.0119 -30.0118 -30.0118 -30.0117 -30.0117
   -28.5903 -28.5903 -28.5903 -28.5903 -28.5902 -28.5902 -28.5793 -28.5793
   -28.5792 -28.5792 -28.5791 -28.5791 -28.5681 -28.5681 -28.5681 -28.5681
   -28.5680 -28.5680 -28.5584 -28.5584 -28.5583 -28.5583 -28.5582 -28.5582
   -28.5561 -28.5561 -28.5561 -28.5560 -28.5560 -28.5560 -28.5469 -28.5469
   -28.5468 -28.5468 -28.5468 -28.5468  -7.7839  -7.7838  -7.7837  -7.7836
    -7.7836  -7.7834  -7.7678  -7.7678  -7.7678  -7.7678  -7.7677  -7.7677
    -7.7544  -7.7544  -7.7543  -7.7543  -7.7541  -7.7541  -7.7277  -7.7276
    -7.7275  -7.7275  -7.7275  -7.7273  -6.9619  -6.9619  -6.9617  -6.9615
    -6.9615  -6.9613  -6.9425  -6.9425  -6.9425  -6.9425  -6.9423  -6.9423
    -6.9289  -6.9289  -6.9287  -6.9287  -6.9286  -6.9285  -6.8970  -6.8970
    -6.8969  -6.8969  -6.8968  -6.8967  -6.8329  -6.8329  -6.8328  -6.8328
    -6.8327  -6.8327  -6.8069  -6.8068  -6.8068  -6.8067  -6.8066  -6.8066

          k = 0.0000 0.0428 0.0763 ( 95038 PWs)   bands (ev):

   -30.0470 -30.0470 -30.0470 -30.0470 -30.0469 -30.0469 -30.0363 -30.0363
   -30.0362 -30.0362 -30.0362 -30.0362 -30.0211 -30.0211 -30.0211 -30.0211
   -30.0210 -30.0210 -30.0119 -30.0119 -30.0118 -30.0117 -30.0117 -30.0117
   -28.5903 -28.5903 -28.5903 -28.5903 -28.5902 -28.5902 -28.5793 -28.5793
   -28.5792 -28.5792 -28.5791 -28.5791 -28.5681 -28.5681 -28.5681 -28.5681
   -28.5680 -28.5680 -28.5584 -28.5584 -28.5583 -28.5583 -28.5582 -28.5582
   -28.5561 -28.5561 -28.5561 -28.5560 -28.5560 -28.5560 -28.5469 -28.5469
   -28.5468 -28.5468 -28.5468 -28.5468  -7.7841  -7.7841  -7.7839  -7.7837
    -7.7836  -7.7835  -7.7679  -7.7679  -7.7679  -7.7679  -7.7677  -7.7677
    -7.7545  -7.7545  -7.7543  -7.7543  -7.7542  -7.7542  -7.7279  -7.7279
    -7.7277  -7.7276  -7.7275  -7.7273  -6.9625  -6.9625  -6.9623  -6.9618
    -6.9617  -6.9616  -6.9429  -6.9429  -6.9429  -6.9429  -6.9427  -6.9427
    -6.9290  -6.9289  -6.9288  -6.9285  -6.9284  -6.9283  -6.8969  -6.8969
    -6.8968  -6.8968  -6.8967  -6.8967  -6.8334  -6.8334  -6.8334  -6.8334
    -6.8332  -6.8332  -6.8065  -6.8065  -6.8064  -6.8063  -6.8063  -6.8062

          k = 0.0000 0.0642 0.0763 ( 95068 PWs)   bands (ev):

   -30.0470 -30.0470 -30.0470 -30.0470 -30.0469 -30.0469 -30.0363 -30.0363
   -30.0362 -30.0362 -30.0362 -30.0362 -30.0211 -30.0211 -30.0211 -30.0211
   -30.0210 -30.0210 -30.0119 -30.0119 -30.0118 -30.0117 -30.0117 -30.0117
   -28.5903 -28.5903 -28.5903 -28.5902 -28.5902 -28.5902 -28.5792 -28.5792
   -28.5791 -28.5791 -28.5791 -28.5791 -28.5681 -28.5681 -28.5681 -28.5681
   -28.5680 -28.5680 -28.5584 -28.5584 -28.5583 -28.5583 -28.5582 -28.5582
   -28.5561 -28.5560 -28.5560 -28.5560 -28.5560 -28.5560 -28.5469 -28.5469
   -28.5468 -28.5468 -28.5468 -28.5468  -7.7845  -7.7844  -7.7843  -7.7838
    -7.7837  -7.7836  -7.7679  -7.7679  -7.7679  -7.7679  -7.7678  -7.7678
    -7.7546  -7.7546  -7.7545  -7.7544  -7.7543  -7.7543  -7.7282  -7.7281
    -7.7280  -7.7277  -7.7276  -7.7275  -6.9634  -6.9634  -6.9632  -6.9623
    -6.9622  -6.9621  -6.9436  -6.9436  -6.9435  -6.9435  -6.9434  -6.9433
    -6.9290  -6.9289  -6.9288  -6.9283  -6.9282  -6.9281  -6.8968  -6.8967
    -6.8967  -6.8966  -6.8965  -6.8965  -6.8343  -6.8343  -6.8342  -6.8342
    -6.8341  -6.8341  -6.8060  -6.8059  -6.8058  -6.8058  -6.8058  -6.8056

          k = 0.0000 0.0855 0.0763 ( 95062 PWs)   bands (ev):

   -30.0470 -30.0470 -30.0470 -30.0470 -30.0469 -30.0469 -30.0363 -30.0363
   -30.0362 -30.0362 -30.0361 -30.0361 -30.0211 -30.0211 -30.0211 -30.0211
   -30.0210 -30.0210 -30.0119 -30.0119 -30.0118 -30.0117 -30.0117 -30.0117
   -28.5902 -28.5902 -28.5902 -28.5902 -28.5901 -28.5901 -28.5792 -28.5792
   -28.5791 -28.5791 -28.5791 -28.5791 -28.5681 -28.5681 -28.5681 -28.5681
   -28.5680 -28.5680 -28.5584 -28.5584 -28.5583 -28.5583 -28.5582 -28.5582
   -28.5561 -28.5560 -28.5560 -28.5560 -28.5560 -28.5559 -28.5469 -28.5469
   -28.5468 -28.5468 -28.5468 -28.5468  -7.7849  -7.7849  -7.7848  -7.7840
    -7.7840  -7.7838  -7.7680  -7.7680  -7.7679  -7.7679  -7.7679  -7.7678
    -7.7548  -7.7547  -7.7546  -7.7546  -7.7545  -7.7544  -7.7286  -7.7285
    -7.7284  -7.7279  -7.7278  -7.7277  -6.9646  -6.9646  -6.9644  -6.9631
    -6.9630  -6.9629  -6.9445  -6.9444  -6.9443  -6.9443  -6.9443  -6.9441
    -6.9289  -6.9289  -6.9287  -6.9281  -6.9280  -6.9279  -6.8966  -6.8965
    -6.8965  -6.8964  -6.8963  -6.8963  -6.8355  -6.8355  -6.8354  -6.8354
    -6.8352  -6.8352  -6.8053  -6.8052  -6.8051  -6.8051  -6.8050  -6.8049

          k = 0.0000 0.1069 0.0763 ( 95050 PWs)   bands (ev):

   -30.0470 -30.0470 -30.0470 -30.0470 -30.0469 -30.0469 -30.0363 -30.0363
   -30.0362 -30.0362 -30.0361 -30.0361 -30.0211 -30.0211 -30.0211 -30.0210
   -30.0210 -30.0210 -30.0119 -30.0119 -30.0117 -30.0117 -30.0117 -30.0117
   -28.5902 -28.5902 -28.5902 -28.5902 -28.5901 -28.5901 -28.5792 -28.5792
   -28.5791 -28.5791 -28.5791 -28.5790 -28.5681 -28.5681 -28.5681 -28.5681
   -28.5680 -28.5680 -28.5584 -28.5584 -28.5583 -28.5583 -28.5582 -28.5582
   -28.5560 -28.5560 -28.5560 -28.5560 -28.5559 -28.5559 -28.5469 -28.5469
   -28.5468 -28.5468 -28.5468 -28.5467  -7.7855  -7.7855  -7.7853  -7.7843
    -7.7843  -7.7841  -7.7682  -7.7682  -7.7680  -7.7680  -7.7679  -7.7678
    -7.7550  -7.7550  -7.7549  -7.7548  -7.7547  -7.7547  -7.7290  -7.7289
    -7.7288  -7.7282  -7.7282  -7.7280  -6.9661  -6.9660  -6.9659  -6.9642
    -6.9641  -6.9640  -6.9456  -6.9455  -6.9454  -6.9453  -6.9452  -6.9450
    -6.9288  -6.9288  -6.9287  -6.9278  -6.9278  -6.9276  -6.8963  -6.8962
    -6.8962  -6.8961  -6.8961  -6.8960  -6.8368  -6.8368  -6.8367  -6.8367
    -6.8366  -6.8366  -6.8044  -6.8043  -6.8042  -6.8042  -6.8041  -6.8040

          k = 0.0000 0.1283 0.0763 ( 95052 PWs)   bands (ev):

   -30.0469 -30.0469 -30.0469 -30.0469 -30.0469 -30.0469 -30.0363 -30.0363
   -30.0361 -30.0361 -30.0361 -30.0361 -30.0211 -30.0211 -30.0211 -30.0210
   -30.0210 -30.0210 -30.0119 -30.0119 -30.0117 -30.0117 -30.0117 -30.0117
   -28.5902 -28.5902 -28.5902 -28.5902 -28.5901 -28.5901 -28.5792 -28.5792
   -28.5791 -28.5791 -28.5790 -28.5790 -28.5681 -28.5681 -28.5681 -28.5681
   -28.5680 -28.5680 -28.5584 -28.5584 -28.5583 -28.5583 -28.5582 -28.5582
   -28.5560 -28.5560 -28.5560 -28.5560 -28.5559 -28.5559 -28.5469 -28.5469
   -28.5468 -28.5468 -28.5468 -28.5467  -7.7862  -7.7861  -7.7860  -7.7847
    -7.7847  -7.7845  -7.7683  -7.7683  -7.7682  -7.7680  -7.7680  -7.7678
    -7.7553  -7.7552  -7.7552  -7.7551  -7.7550  -7.7549  -7.7295  -7.7294
    -7.7292  -7.7286  -7.7285  -7.7284  -6.9679  -6.9678  -6.9676  -6.9656
    -6.9655  -6.9653  -6.9468  -6.9468  -6.9466  -6.9464  -6.9463  -6.9461
    -6.9287  -6.9287  -6.9286  -6.9276  -6.9276  -6.9274  -6.8960  -6.8959
    -6.8959  -6.8958  -6.8958  -6.8956  -6.8383  -6.8383  -6.8382  -6.8382
    -6.8380  -6.8380  -6.8035  -6.8034  -6.8033  -6.8033  -6.8032  -6.8030

          k = 0.0000 0.1497 0.0763 ( 95042 PWs)   bands (ev):

   -30.0469 -30.0469 -30.0469 -30.0469 -30.0468 -30.0468 -30.0362 -30.0362
   -30.0361 -30.0361 -30.0361 -30.0361 -30.0211 -30.0211 -30.0210 -30.0210
   -30.0210 -30.0210 -30.0119 -30.0118 -30.0117 -30.0117 -30.0117 -30.0117
   -28.5902 -28.5901 -28.5901 -28.5901 -28.5901 -28.5900 -28.5791 -28.5791
   -28.5790 -28.5790 -28.5790 -28.5790 -28.5681 -28.5681 -28.5681 -28.5681
   -28.5680 -28.5680 -28.5584 -28.5584 -28.5583 -28.5583 -28.5582 -28.5582
   -28.5560 -28.5560 -28.5560 -28.5560 -28.5559 -28.5559 -28.5469 -28.5469
   -28.5468 -28.5467 -28.5467 -28.5467  -7.7870  -7.7869  -7.7868  -7.7852
    -7.7851  -7.7850  -7.7685  -7.7685  -7.7683  -7.7680  -7.7680  -7.7678
    -7.7557  -7.7555  -7.7555  -7.7554  -7.7554  -7.7552  -7.7300  -7.7299
    -7.7297  -7.7291  -7.7290  -7.7288  -6.9699  -6.9697  -6.9696  -6.9673
    -6.9671  -6.9670  -6.9482  -6.9481  -6.9479  -6.9475  -6.9475  -6.9473
    -6.9286  -6.9286  -6.9284  -6.9274  -6.9274  -6.9272  -6.8956  -6.8955
    -6.8955  -6.8954  -6.8954  -6.8952  -6.8399  -6.8399  -6.8398  -6.8397
    -6.8396  -6.8396  -6.8025  -6.8024  -6.8023  -6.8022  -6.8022  -6.8020

          k = 0.0000 0.1711 0.0763 ( 95064 PWs)   bands (ev):

   -30.0469 -30.0469 -30.0469 -30.0469 -30.0468 -30.0468 -30.0362 -30.0362
   -30.0361 -30.0361 -30.0361 -30.0361 -30.0211 -30.0210 -30.0210 -30.0210
   -30.0210 -30.0209 -30.0119 -30.0118 -30.0117 -30.0117 -30.0117 -30.0117
   -28.5901 -28.5901 -28.5901 -28.5901 -28.5900 -28.5900 -28.5791 -28.5791
   -28.5790 -28.5790 -28.5789 -28.5789 -28.5681 -28.5681 -28.5681 -28.5681
   -28.5680 -28.5680 -28.5584 -28.5584 -28.5583 -28.5583 -28.5582 -28.5582
   -28.5560 -28.5560 -28.5560 -28.5559 -28.5559 -28.5559 -28.5469 -28.5468
   -28.5467 -28.5467 -28.5467 -28.5467  -7.7878  -7.7877  -7.7876  -7.7858
    -7.7857  -7.7855  -7.7687  -7.7686  -7.7685  -7.7680  -7.7680  -7.7678
    -7.7561  -7.7560  -7.7559  -7.7558  -7.7558  -7.7556  -7.7305  -7.7304
    -7.7303  -7.7296  -7.7295  -7.7293  -6.9721  -6.9719  -6.9718  -6.9692
    -6.9690  -6.9689  -6.9496  -6.9495  -6.9493  -6.9488  -6.9487  -6.9485
    -6.9285  -6.9285  -6.9283  -6.9272  -6.9272  -6.9270  -6.8952  -6.8951
    -6.8950  -6.8950  -6.8949  -6.8947  -6.8415  -6.8415  -6.8414  -6.8413
    -6.8412  -6.8412  -6.8014  -6.8013  -6.8012  -6.8012  -6.8011  -6.8009

          k = 0.0000 0.1925 0.0763 ( 95102 PWs)   bands (ev):

   -30.0469 -30.0469 -30.0469 -30.0469 -30.0468 -30.0468 -30.0362 -30.0362
   -30.0361 -30.0361 -30.0360 -30.0360 -30.0211 -30.0210 -30.0210 -30.0210
   -30.0210 -30.0209 -30.0119 -30.0118 -30.0117 -30.0117 -30.0117 -30.0117
   -28.5901 -28.5901 -28.5901 -28.5900 -28.5900 -28.5900 -28.5791 -28.5790
   -28.5789 -28.5789 -28.5789 -28.5789 -28.5681 -28.5681 -28.5681 -28.5681
   -28.5680 -28.5680 -28.5584 -28.5584 -28.5583 -28.5583 -28.5583 -28.5583
   -28.5560 -28.5560 -28.5559 -28.5559 -28.5559 -28.5558 -28.5469 -28.5468
   -28.5467 -28.5467 -28.5467 -28.5467  -7.7887  -7.7886  -7.7885  -7.7864
    -7.7863  -7.7862  -7.7689  -7.7688  -7.7687  -7.7680  -7.7679  -7.7678
    -7.7566  -7.7565  -7.7564  -7.7563  -7.7563  -7.7561  -7.7310  -7.7309
    -7.7308  -7.7302  -7.7300  -7.7299  -6.9745  -6.9743  -6.9741  -6.9713
    -6.9712  -6.9710  -6.9511  -6.9510  -6.9507  -6.9501  -6.9500  -6.9498
    -6.9284  -6.9284  -6.9282  -6.9271  -6.9270  -6.9269  -6.8947  -6.8946
    -6.8945  -6.8944  -6.8944  -6.8942  -6.8431  -6.8430  -6.8430  -6.8429
    -6.8428  -6.8427  -6.8003  -6.8002  -6.8001  -6.8001  -6.8000  -6.7998

          k = 0.0000 0.2138 0.0763 ( 95116 PWs)   bands (ev):

   -30.0468 -30.0468 -30.0468 -30.0468 -30.0467 -30.0467 -30.0361 -30.0361
   -30.0360 -30.0360 -30.0360 -30.0360 -30.0210 -30.0210 -30.0210 -30.0210
   -30.0210 -30.0209 -30.0119 -30.0118 -30.0117 -30.0117 -30.0117 -30.0117
   -28.5900 -28.5900 -28.5900 -28.5900 -28.5899 -28.5899 -28.5790 -28.5790
   -28.5789 -28.5789 -28.5789 -28.5788 -28.5681 -28.5681 -28.5681 -28.5681
   -28.5680 -28.5680 -28.5584 -28.5584 -28.5583 -28.5583 -28.5583 -28.5583
   -28.5560 -28.5559 -28.5559 -28.5559 -28.5559 -28.5558 -28.5468 -28.5468
   -28.5467 -28.5467 -28.5467 -28.5466  -7.7897  -7.7896  -7.7895  -7.7871
    -7.7871  -7.7869  -7.7691  -7.7690  -7.7689  -7.7680  -7.7679  -7.7678
    -7.7573  -7.7571  -7.7570  -7.7570  -7.7568  -7.7566  -7.7315  -7.7314
    -7.7313  -7.7307  -7.7306  -7.7304  -6.9770  -6.9768  -6.9766  -6.9737
    -6.9735  -6.9733  -6.9526  -6.9525  -6.9522  -6.9514  -6.9513  -6.9511
    -6.9283  -6.9283  -6.9281  -6.9270  -6.9269  -6.9268  -6.8942  -6.8941
    -6.8939  -6.8939  -6.8938  -6.8936  -6.8447  -6.8446  -6.8445  -6.8444
    -6.8444  -6.8442  -6.7992  -6.7991  -6.7990  -6.7990  -6.7989  -6.7987

          k = 0.0000 0.2352 0.0763 ( 95132 PWs)   bands (ev):

   -30.0468 -30.0468 -30.0468 -30.0468 -30.0467 -30.0467 -30.0361 -30.0361
   -30.0360 -30.0360 -30.0360 -30.0360 -30.0210 -30.0210 -30.0210 -30.0210
   -30.0209 -30.0209 -30.0118 -30.0118 -30.0117 -30.0117 -30.0117 -30.0117
   -28.5900 -28.5900 -28.5900 -28.5899 -28.5899 -28.5899 -28.5790 -28.5789
   -28.5788 -28.5788 -28.5788 -28.5788 -28.5681 -28.5681 -28.5681 -28.5681
   -28.5680 -28.5680 -28.5584 -28.5584 -28.5583 -28.5583 -28.5583 -28.5583
   -28.5559 -28.5559 -28.5559 -28.5559 -28.5558 -28.5558 -28.5468 -28.5468
   -28.5467 -28.5467 -28.5466 -28.5466  -7.7907  -7.7906  -7.7905  -7.7879
    -7.7878  -7.7877  -7.7693  -7.7693  -7.7691  -7.7679  -7.7679  -7.7678
    -7.7580  -7.7578  -7.7577  -7.7576  -7.7575  -7.7573  -7.7320  -7.7319
    -7.7318  -7.7313  -7.7312  -7.7310  -6.9796  -6.9794  -6.9791  -6.9761
    -6.9759  -6.9757  -6.9540  -6.9539  -6.9536  -6.9528  -6.9526  -6.9524
    -6.9283  -6.9282  -6.9281  -6.9270  -6.9269  -6.9267  -6.8936  -6.8935
    -6.8934  -6.8932  -6.8931  -6.8930  -6.8462  -6.8460  -6.8460  -6.8458
    -6.8458  -6.8457  -6.7981  -6.7980  -6.7979  -6.7978  -6.7978  -6.7976

          k = 0.0000 0.2566 0.0763 ( 95122 PWs)   bands (ev):

   -30.0468 -30.0468 -30.0468 -30.0468 -30.0467 -30.0467 -30.0361 -30.0361
   -30.0360 -30.0360 -30.0359 -30.0359 -30.0210 -30.0210 -30.0210 -30.0210
   -30.0209 -30.0209 -30.0118 -30.0118 -30.0117 -30.0117 -30.0117 -30.0117
   -28.5899 -28.5899 -28.5899 -28.5899 -28.5898 -28.5898 -28.5789 -28.5789
   -28.5788 -28.5788 -28.5788 -28.5787 -28.5681 -28.5681 -28.5681 -28.5681
   -28.5680 -28.5680 -28.5584 -28.5584 -28.5583 -28.5583 -28.5583 -28.5583
   -28.5559 -28.5559 -28.5559 -28.5558 -28.5558 -28.5558 -28.5468 -28.5467
   -28.5467 -28.5466 -28.5466 -28.5466  -7.7918  -7.7916  -7.7915  -7.7888
    -7.7887  -7.7885  -7.7696  -7.7695  -7.7694  -7.7679  -7.7679  -7.7677
    -7.7587  -7.7586  -7.7584  -7.7584  -7.7582  -7.7580  -7.7324  -7.7324
    -7.7322  -7.7318  -7.7317  -7.7316  -6.9822  -6.9820  -6.9817  -6.9787
    -6.9785  -6.9782  -6.9555  -6.9554  -6.9550  -6.9542  -6.9540  -6.9538
    -6.9283  -6.9282  -6.9281  -6.9270  -6.9269  -6.9268  -6.8930  -6.8929
    -6.8927  -6.8925  -6.8924  -6.8923  -6.8476  -6.8474  -6.8473  -6.8472
    -6.8472  -6.8470  -6.7969  -6.7968  -6.7968  -6.7967  -6.7967  -6.7965

          k = 0.0000 0.2780 0.0763 ( 95080 PWs)   bands (ev):

   -30.0468 -30.0468 -30.0467 -30.0467 -30.0467 -30.0467 -30.0361 -30.0361
   -30.0359 -30.0359 -30.0359 -30.0359 -30.0210 -30.0210 -30.0210 -30.0210
   -30.0209 -30.0209 -30.0118 -30.0118 -30.0117 -30.0117 -30.0117 -30.0116
   -28.5899 -28.5898 -28.5898 -28.5898 -28.5898 -28.5897 -28.5788 -28.5788
   -28.5787 -28.5787 -28.5787 -28.5787 -28.5681 -28.5681 -28.5681 -28.5681
   -28.5680 -28.5680 -28.5584 -28.5584 -28.5583 -28.5583 -28.5583 -28.5583
   -28.5559 -28.5559 -28.5558 -28.5558 -28.5558 -28.5557 -28.5468 -28.5467
   -28.5466 -28.5466 -28.5466 -28.5466  -7.7928  -7.7927  -7.7925  -7.7897
    -7.7896  -7.7894  -7.7698  -7.7698  -7.7697  -7.7680  -7.7679  -7.7677
    -7.7596  -7.7594  -7.7592  -7.7592  -7.7590  -7.7588  -7.7328  -7.7328
    -7.7326  -7.7324  -7.7322  -7.7321  -6.9848  -6.9846  -6.9842  -6.9813
    -6.9811  -6.9808  -6.9569  -6.9568  -6.9565  -6.9556  -6.9553  -6.9551
    -6.9283  -6.9283  -6.9281  -6.9271  -6.9270  -6.9269  -6.8923  -6.8922
    -6.8921  -6.8918  -6.8917  -6.8916  -6.8488  -6.8486  -6.8485  -6.8485
    -6.8484  -6.8482  -6.7958  -6.7957  -6.7957  -6.7956  -6.7955  -6.7954

          k = 0.0000 0.2994 0.0763 ( 95112 PWs)   bands (ev):

   -30.0467 -30.0467 -30.0467 -30.0467 -30.0466 -30.0466 -30.0360 -30.0360
   -30.0359 -30.0359 -30.0359 -30.0359 -30.0210 -30.0210 -30.0210 -30.0210
   -30.0209 -30.0209 -30.0118 -30.0118 -30.0117 -30.0117 -30.0117 -30.0116
   -28.5898 -28.5898 -28.5898 -28.5898 -28.5897 -28.5897 -28.5788 -28.5788
   -28.5787 -28.5787 -28.5786 -28.5786 -28.5681 -28.5681 -28.5681 -28.5681
   -28.5680 -28.5680 -28.5584 -28.5584 -28.5583 -28.5583 -28.5583 -28.5583
   -28.5558 -28.5558 -28.5558 -28.5558 -28.5558 -28.5557 -28.5467 -28.5467
   -28.5466 -28.5466 -28.5466 -28.5465  -7.7938  -7.7937  -7.7935  -7.7906
    -7.7905  -7.7903  -7.7702  -7.7701  -7.7700  -7.7680  -7.7679  -7.7678
    -7.7604  -7.7603  -7.7601  -7.7601  -7.7599  -7.7597  -7.7332  -7.7331
    -7.7330  -7.7328  -7.7327  -7.7325  -6.9873  -6.9872  -6.9867  -6.9839
    -6.9837  -6.9833  -6.9583  -6.9582  -6.9578  -6.9569  -6.9567  -6.9565
    -6.9284  -6.9284  -6.9282  -6.9273  -6.9272  -6.9270  -6.8916  -6.8915
    -6.8914  -6.8910  -6.8909  -6.8908  -6.8499  -6.8497  -6.8496  -6.8496
    -6.8494  -6.8492  -6.7947  -6.7946  -6.7946  -6.7945  -6.7945  -6.7943

          k = 0.0000 0.3208 0.0763 ( 95144 PWs)   bands (ev):

   -30.0467 -30.0467 -30.0467 -30.0467 -30.0466 -30.0466 -30.0360 -30.0360
   -30.0359 -30.0359 -30.0358 -30.0358 -30.0210 -30.0210 -30.0210 -30.0210
   -30.0209 -30.0209 -30.0118 -30.0118 -30.0117 -30.0117 -30.0117 -30.0116
   -28.5898 -28.5897 -28.5897 -28.5897 -28.5897 -28.5896 -28.5787 -28.5787
   -28.5786 -28.5786 -28.5786 -28.5786 -28.5681 -28.5681 -28.5681 -28.5681
   -28.5681 -28.5680 -28.5584 -28.5584 -28.5583 -28.5583 -28.5583 -28.5583
   -28.5558 -28.5558 -28.5558 -28.5558 -28.5557 -28.5557 -28.5467 -28.5467
   -28.5466 -28.5466 -28.5465 -28.5465  -7.7948  -7.7947  -7.7945  -7.7915
    -7.7914  -7.7912  -7.7706  -7.7705  -7.7704  -7.7681  -7.7681  -7.7679
    -7.7612  -7.7611  -7.7610  -7.7609  -7.7608  -7.7606  -7.7335  -7.7334
    -7.7332  -7.7332  -7.7331  -7.7330  -6.9898  -6.9896  -6.9892  -6.9864
    -6.9862  -6.9859  -6.9597  -6.9595  -6.9592  -6.9583  -6.9580  -6.9578
    -6.9286  -6.9285  -6.9284  -6.9275  -6.9274  -6.9273  -6.8909  -6.8908
    -6.8907  -6.8903  -6.8902  -6.8900  -6.8509  -6.8507  -6.8506  -6.8505
    -6.8503  -6.8501  -6.7936  -6.7935  -6.7935  -6.7934  -6.7934  -6.7933

          k = 0.0000 0.3421 0.0763 ( 95138 PWs)   bands (ev):

   -30.0467 -30.0467 -30.0466 -30.0466 -30.0466 -30.0466 -30.0360 -30.0360
   -30.0358 -30.0358 -30.0358 -30.0358 -30.0210 -30.0210 -30.0210 -30.0210
   -30.0209 -30.0209 -30.0118 -30.0118 -30.0117 -30.0117 -30.0116 -30.0116
   -28.5897 -28.5897 -28.5897 -28.5897 -28.5896 -28.5896 -28.5787 -28.5787
   -28.5786 -28.5786 -28.5785 -28.5785 -28.5681 -28.5681 -28.5681 -28.5681
   -28.5681 -28.5681 -28.5584 -28.5584 -28.5583 -28.5583 -28.5583 -28.5583
   -28.5558 -28.5558 -28.5558 -28.5557 -28.5557 -28.5557 -28.5467 -28.5466
   -28.5466 -28.5465 -28.5465 -28.5465  -7.7958  -7.7956  -7.7955  -7.7924
    -7.7923  -7.7921  -7.7711  -7.7710  -7.7709  -7.7684  -7.7683  -7.7681
    -7.7620  -7.7619  -7.7618  -7.7617  -7.7617  -7.7615  -7.7337  -7.7336
    -7.7336  -7.7335  -7.7335  -7.7333  -6.9921  -6.9919  -6.9915  -6.9889
    -6.9886  -6.9883  -6.9610  -6.9608  -6.9604  -6.9596  -6.9592  -6.9591
    -6.9288  -6.9287  -6.9286  -6.9278  -6.9277  -6.9275  -6.8901  -6.8901
    -6.8899  -6.8895  -6.8894  -6.8892  -6.8517  -6.8515  -6.8514  -6.8513
    -6.8511  -6.8509  -6.7926  -6.7925  -6.7925  -6.7924  -6.7923  -6.7922

          k = 0.0000 0.3635 0.0763 ( 95110 PWs)   bands (ev):

   -30.0466 -30.0466 -30.0466 -30.0466 -30.0465 -30.0465 -30.0359 -30.0359
   -30.0358 -30.0358 -30.0358 -30.0358 -30.0210 -30.0210 -30.0210 -30.0209
   -30.0209 -30.0209 -30.0118 -30.0118 -30.0117 -30.0116 -30.0116 -30.0116
   -28.5897 -28.5896 -28.5896 -28.5896 -28.5896 -28.5895 -28.5786 -28.5786
   -28.5785 -28.5785 -28.5785 -28.5785 -28.5681 -28.5681 -28.5681 -28.5681
   -28.5681 -28.5681 -28.5584 -28.5584 -28.5583 -28.5583 -28.5583 -28.5583
   -28.5558 -28.5558 -28.5557 -28.5557 -28.5557 -28.5556 -28.5467 -28.5466
   -28.5465 -28.5465 -28.5465 -28.5465  -7.7966  -7.7965  -7.7963  -7.7933
    -7.7932  -7.7930  -7.7716  -7.7716  -7.7714  -7.7688  -7.7687  -7.7685
    -7.7627  -7.7626  -7.7625  -7.7625  -7.7624  -7.7623  -7.7339  -7.7339
    -7.7338  -7.7338  -7.7337  -7.7336  -6.9942  -6.9941  -6.9936  -6.9912
    -6.9910  -6.9906  -6.9622  -6.9620  -6.9617  -6.9609  -6.9605  -6.9603
    -6.9290  -6.9289  -6.9288  -6.9281  -6.9280  -6.9279  -6.8894  -6.8893
    -6.8892  -6.8887  -6.8886  -6.8885  -6.8524  -6.8522  -6.8521  -6.8520
    -6.8518  -6.8516  -6.7916  -6.7915  -6.7915  -6.7914  -6.7913  -6.7912

          k = 0.0000 0.3849 0.0763 ( 95130 PWs)   bands (ev):

   -30.0466 -30.0466 -30.0466 -30.0466 -30.0465 -30.0465 -30.0359 -30.0359
   -30.0358 -30.0358 -30.0358 -30.0358 -30.0210 -30.0210 -30.0210 -30.0209
   -30.0209 -30.0209 -30.0118 -30.0118 -30.0117 -30.0116 -30.0116 -30.0116
   -28.5896 -28.5896 -28.5896 -28.5896 -28.5895 -28.5895 -28.5786 -28.5786
   -28.5785 -28.5785 -28.5784 -28.5784 -28.5681 -28.5681 -28.5681 -28.5681
   -28.5681 -28.5681 -28.5584 -28.5584 -28.5583 -28.5583 -28.5583 -28.5583
   -28.5557 -28.5557 -28.5557 -28.5557 -28.5557 -28.5556 -28.5466 -28.5466
   -28.5465 -28.5465 -28.5465 -28.5464  -7.7974  -7.7973  -7.7971  -7.7942
    -7.7941  -7.7939  -7.7723  -7.7723  -7.7721  -7.7694  -7.7692  -7.7690
    -7.7633  -7.7632  -7.7631  -7.7631  -7.7630  -7.7629  -7.7341  -7.7341
    -7.7340  -7.7340  -7.7339  -7.7339  -6.9962  -6.9961  -6.9956  -6.9934
    -6.9932  -6.9928  -6.9634  -6.9631  -6.9628  -6.9621  -6.9617  -6.9615
    -6.9293  -6.9292  -6.9291  -6.9285  -6.9284  -6.9282  -6.8886  -6.8885
    -6.8884  -6.8879  -6.8878  -6.8877  -6.8530  -6.8528  -6.8527  -6.8525
    -6.8523  -6.8522  -6.7906  -6.7906  -6.7905  -6.7905  -6.7904  -6.7903

          k = 0.0000 0.4063 0.0763 ( 95128 PWs)   bands (ev):

   -30.0466 -30.0466 -30.0466 -30.0466 -30.0465 -30.0465 -30.0359 -30.0359
   -30.0358 -30.0358 -30.0357 -30.0357 -30.0210 -30.0210 -30.0209 -30.0209
   -30.0209 -30.0209 -30.0118 -30.0118 -30.0117 -30.0116 -30.0116 -30.0116
   -28.5896 -28.5895 -28.5895 -28.5895 -28.5895 -28.5894 -28.5785 -28.5785
   -28.5784 -28.5784 -28.5784 -28.5784 -28.5682 -28.5682 -28.5681 -28.5681
   -28.5681 -28.5681 -28.5584 -28.5584 -28.5583 -28.5583 -28.5583 -28.5583
   -28.5557 -28.5557 -28.5557 -28.5557 -28.5556 -28.5556 -28.5466 -28.5466
   -28.5465 -28.5465 -28.5465 -28.5464  -7.7981  -7.7980  -7.7978  -7.7951
    -7.7949  -7.7948  -7.7731  -7.7730  -7.7728  -7.7702  -7.7700  -7.7698
    -7.7637  -7.7636  -7.7636  -7.7635  -7.7635  -7.7634  -7.7343  -7.7342
    -7.7342  -7.7341  -7.7340  -7.7340  -6.9980  -6.9979  -6.9974  -6.9955
    -6.9952  -6.9949  -6.9644  -6.9642  -6.9638  -6.9632  -6.9628  -6.9626
    -6.9295  -6.9295  -6.9293  -6.9288  -6.9288  -6.9286  -6.8879  -6.8878
    -6.8877  -6.8872  -6.8871  -6.8870  -6.8534  -6.8532  -6.8531  -6.8529
    -6.8528  -6.8526  -6.7898  -6.7897  -6.7897  -6.7896  -6.7895  -6.7894

          k = 0.0000 0.4277 0.0763 ( 95160 PWs)   bands (ev):

   -30.0465 -30.0465 -30.0465 -30.0465 -30.0464 -30.0464 -30.0358 -30.0358
   -30.0357 -30.0357 -30.0357 -30.0357 -30.0210 -30.0210 -30.0209 -30.0209
   -30.0209 -30.0208 -30.0118 -30.0117 -30.0116 -30.0116 -30.0116 -30.0116
   -28.5895 -28.5895 -28.5895 -28.5895 -28.5894 -28.5894 -28.5785 -28.5785
   -28.5784 -28.5784 -28.5784 -28.5783 -28.5682 -28.5682 -28.5681 -28.5681
   -28.5681 -28.5681 -28.5584 -28.5584 -28.5583 -28.5583 -28.5583 -28.5583
   -28.5557 -28.5557 -28.5557 -28.5557 -28.5556 -28.5556 -28.5466 -28.5466
   -28.5465 -28.5464 -28.5464 -28.5464  -7.7987  -7.7986  -7.7984  -7.7959
    -7.7957  -7.7956  -7.7738  -7.7737  -7.7735  -7.7711  -7.7708  -7.7707
    -7.7640  -7.7640  -7.7639  -7.7639  -7.7638  -7.7637  -7.7345  -7.7344
    -7.7343  -7.7342  -7.7342  -7.7341  -6.9996  -6.9995  -6.9990  -6.9973
    -6.9970  -6.9967  -6.9654  -6.9651  -6.9647  -6.9642  -6.9639  -6.9636
    -6.9298  -6.9297  -6.9296  -6.9292  -6.9291  -6.9290  -6.8872  -6.8871
    -6.8870  -6.8865  -6.8864  -6.8863  -6.8537  -6.8536  -6.8535  -6.8533
    -6.8531  -6.8530  -6.7890  -6.7889  -6.7889  -6.7888  -6.7887  -6.7887

          k = 0.0000 0.4491 0.0763 ( 95162 PWs)   bands (ev):

   -30.0465 -30.0465 -30.0465 -30.0465 -30.0464 -30.0464 -30.0358 -30.0358
   -30.0357 -30.0357 -30.0357 -30.0357 -30.0210 -30.0209 -30.0209 -30.0209
   -30.0209 -30.0208 -30.0118 -30.0117 -30.0116 -30.0116 -30.0116 -30.0116
   -28.5895 -28.5895 -28.5895 -28.5895 -28.5894 -28.5894 -28.5785 -28.5785
   -28.5784 -28.5783 -28.5783 -28.5783 -28.5682 -28.5682 -28.5681 -28.5681
   -28.5681 -28.5681 -28.5585 -28.5585 -28.5583 -28.5583 -28.5583 -28.5583
   -28.5557 -28.5557 -28.5557 -28.5556 -28.5556 -28.5556 -28.5466 -28.5465
   -28.5464 -28.5464 -28.5464 -28.5464  -7.7992  -7.7991  -7.7989  -7.7966
    -7.7965  -7.7963  -7.7746  -7.7745  -7.7742  -7.7720  -7.7718  -7.7716
    -7.7642  -7.7642  -7.7642  -7.7641  -7.7640  -7.7639  -7.7346  -7.7345
    -7.7344  -7.7343  -7.7343  -7.7342  -7.0010  -7.0009  -7.0004  -6.9990
    -6.9987  -6.9984  -6.9662  -6.9659  -6.9655  -6.9652  -6.9648  -6.9645
    -6.9301  -6.9300  -6.9299  -6.9296  -6.9295  -6.9293  -6.8865  -6.8864
    -6.8863  -6.8859  -6.8858  -6.8857  -6.8540  -6.8539  -6.8537  -6.8536
    -6.8534  -6.8533  -6.7882  -6.7882  -6.7881  -6.7881  -6.7880  -6.7880

          k = 0.0000 0.4704 0.0763 ( 95148 PWs)   bands (ev):

   -30.0465 -30.0465 -30.0465 -30.0465 -30.0464 -30.0464 -30.0358 -30.0358
   -30.0357 -30.0357 -30.0357 -30.0357 -30.0210 -30.0209 -30.0209 -30.0209
   -30.0209 -30.0208 -30.0118 -30.0117 -30.0116 -30.0116 -30.0116 -30.0116
   -28.5894 -28.5894 -28.5894 -28.5894 -28.5893 -28.5893 -28.5784 -28.5784
   -28.5783 -28.5783 -28.5783 -28.5783 -28.5682 -28.5682 -28.5681 -28.5681
   -28.5681 -28.5681 -28.5585 -28.5585 -28.5583 -28.5583 -28.5583 -28.5583
   -28.5557 -28.5556 -28.5556 -28.5556 -28.5556 -28.5555 -28.5466 -28.5465
   -28.5464 -28.5464 -28.5464 -28.5464  -7.7996  -7.7995  -7.7993  -7.7973
    -7.7972  -7.7970  -7.7752  -7.7751  -7.7749  -7.7730  -7.7728  -7.7726
    -7.7644  -7.7643  -7.7643  -7.7642  -7.7641  -7.7641  -7.7346  -7.7345
    -7.7345  -7.7344  -7.7344  -7.7342  -7.0022  -7.0020  -7.0015  -7.0005
    -7.0001  -6.9999  -6.9668  -6.9666  -6.9662  -6.9660  -6.9657  -6.9654
    -6.9303  -6.9302  -6.9301  -6.9299  -6.9298  -6.9297  -6.8859  -6.8859
    -6.8857  -6.8854  -6.8853  -6.8852  -6.8542  -6.8540  -6.8539  -6.8538
    -6.8537  -6.8535  -6.7876  -6.7876  -6.7875  -6.7875  -6.7874  -6.7873

          k = 0.0000 0.4918 0.0763 ( 95162 PWs)   bands (ev):

   -30.0465 -30.0465 -30.0465 -30.0465 -30.0464 -30.0464 -30.0358 -30.0358
   -30.0357 -30.0357 -30.0356 -30.0356 -30.0209 -30.0209 -30.0209 -30.0209
   -30.0209 -30.0208 -30.0118 -30.0117 -30.0116 -30.0116 -30.0116 -30.0116
   -28.5894 -28.5894 -28.5894 -28.5894 -28.5893 -28.5893 -28.5784 -28.5784
   -28.5783 -28.5783 -28.5783 -28.5782 -28.5682 -28.5682 -28.5681 -28.5681
   -28.5681 -28.5681 -28.5585 -28.5585 -28.5583 -28.5583 -28.5583 -28.5583
   -28.5556 -28.5556 -28.5556 -28.5556 -28.5556 -28.5555 -28.5465 -28.5465
   -28.5464 -28.5464 -28.5464 -28.5464  -7.7998  -7.7997  -7.7995  -7.7979
    -7.7978  -7.7977  -7.7758  -7.7757  -7.7754  -7.7739  -7.7737  -7.7735
    -7.7644  -7.7644  -7.7644  -7.7643  -7.7642  -7.7642  -7.7347  -7.7346
    -7.7346  -7.7345  -7.7344  -7.7343  -7.0031  -7.0029  -7.0025  -7.0017
    -7.0013  -7.0012  -6.9674  -6.9672  -6.9668  -6.9667  -6.9664  -6.9661
    -6.9305  -6.9304  -6.9303  -6.9302  -6.9301  -6.9300  -6.8854  -6.8853
    -6.8852  -6.8849  -6.8849  -6.8847  -6.8543  -6.8542  -6.8540  -6.8540
    -6.8538  -6.8537  -6.7871  -6.7871  -6.7870  -6.7870  -6.7868  -6.7868

          k = 0.0000 0.5132 0.0763 ( 95164 PWs)   bands (ev):

   -30.0465 -30.0465 -30.0465 -30.0465 -30.0464 -30.0464 -30.0358 -30.0358
   -30.0357 -30.0357 -30.0356 -30.0356 -30.0209 -30.0209 -30.0209 -30.0209
   -30.0208 -30.0208 -30.0117 -30.0117 -30.0116 -30.0116 -30.0116 -30.0116
   -28.5894 -28.5894 -28.5894 -28.5894 -28.5893 -28.5893 -28.5784 -28.5784
   -28.5783 -28.5783 -28.5782 -28.5782 -28.5682 -28.5682 -28.5681 -28.5681
   -28.5681 -28.5681 -28.5585 -28.5585 -28.5583 -28.5583 -28.5583 -28.5583
   -28.5556 -28.5556 -28.5556 -28.5556 -28.5555 -28.5555 -28.5465 -28.5465
   -28.5464 -28.5464 -28.5464 -28.5464  -7.8000  -7.7999  -7.7997  -7.7985
    -7.7984  -7.7982  -7.7762  -7.7760  -7.7758  -7.7748  -7.7745  -7.7743
    -7.7645  -7.7645  -7.7644  -7.7644  -7.7643  -7.7643  -7.7347  -7.7346
    -7.7346  -7.7345  -7.7344  -7.7343  -7.0038  -7.0035  -7.0032  -7.0027
    -7.0023  -7.0022  -6.9678  -6.9676  -6.9673  -6.9672  -6.9670  -6.9666
    -6.9307  -6.9306  -6.9305  -6.9304  -6.9304  -6.9302  -6.8850  -6.8849
    -6.8847  -6.8846  -6.8845  -6.8844  -6.8543  -6.8542  -6.8541  -6.8541
    -6.8540  -6.8538  -6.7867  -6.7867  -6.7866  -6.7866  -6.7864  -6.7864

          k = 0.0000 0.5346 0.0763 ( 95172 PWs)   bands (ev):

   -30.0465 -30.0465 -30.0464 -30.0464 -30.0464 -30.0464 -30.0358 -30.0358
   -30.0357 -30.0357 -30.0356 -30.0356 -30.0209 -30.0209 -30.0209 -30.0209
   -30.0208 -30.0208 -30.0117 -30.0117 -30.0116 -30.0116 -30.0116 -30.0116
   -28.5894 -28.5894 -28.5894 -28.5894 -28.5893 -28.5893 -28.5784 -28.5784
   -28.5783 -28.5783 -28.5782 -28.5782 -28.5682 -28.5682 -28.5681 -28.5681
   -28.5681 -28.5681 -28.5585 -28.5585 -28.5583 -28.5583 -28.5583 -28.5583
   -28.5556 -28.5556 -28.5556 -28.5556 -28.5555 -28.5555 -28.5465 -28.5465
   -28.5464 -28.5464 -28.5464 -28.5464  -7.8000  -7.7999  -7.7997  -7.7990
    -7.7989  -7.7987  -7.7764  -7.7762  -7.7760  -7.7754  -7.7752  -7.7750
    -7.7645  -7.7645  -7.7644  -7.7644  -7.7643  -7.7643  -7.7347  -7.7346
    -7.7346  -7.7345  -7.7345  -7.7344  -7.0042  -7.0039  -7.0036  -7.0035
    -7.0031  -7.0030  -6.9680  -6.9679  -6.9677  -6.9675  -6.9674  -6.9671
    -6.9308  -6.9307  -6.9306  -6.9306  -6.9305  -6.9304  -6.8846  -6.8846
    -6.8844  -6.8844  -6.8843  -6.8842  -6.8544  -6.8543  -6.8542  -6.8541
    -6.8541  -6.8539  -6.7864  -6.7864  -6.7863  -6.7863  -6.7861  -6.7861

          k = 0.0000 0.5560 0.0763 ( 95164 PWs)   bands (ev):

   -30.0465 -30.0465 -30.0464 -30.0464 -30.0464 -30.0464 -30.0358 -30.0358
   -30.0357 -30.0357 -30.0356 -30.0356 -30.0209 -30.0209 -30.0209 -30.0209
   -30.0208 -30.0208 -30.0117 -30.0117 -30.0116 -30.0116 -30.0116 -30.0116
   -28.5894 -28.5894 -28.5894 -28.5894 -28.5893 -28.5893 -28.5784 -28.5784
   -28.5783 -28.5782 -28.5782 -28.5782 -28.5682 -28.5682 -28.5681 -28.5681
   -28.5681 -28.5681 -28.5585 -28.5585 -28.5583 -28.5583 -28.5583 -28.5583
   -28.5556 -28.5556 -28.5556 -28.5556 -28.5555 -28.5555 -28.5465 -28.5465
   -28.5464 -28.5464 -28.5464 -28.5464  -7.7999  -7.7998  -7.7996  -7.7994
    -7.7993  -7.7991  -7.7764  -7.7763  -7.7761  -7.7760  -7.7757  -7.7756
    -7.7645  -7.7645  -7.7645  -7.7645  -7.7643  -7.7643  -7.7347  -7.7347
    -7.7346  -7.7346  -7.7344  -7.7344  -7.0044  -7.0041  -7.0040  -7.0038
    -7.0037  -7.0035  -6.9682  -6.9680  -6.9680  -6.9678  -6.9676  -6.9674
    -6.9308  -6.9308  -6.9307  -6.9307  -6.9306  -6.9305  -6.8844  -6.8843
    -6.8843  -6.8842  -6.8842  -6.8840  -6.8544  -6.8543  -6.8543  -6.8542
    -6.8541  -6.8540  -6.7862  -6.7862  -6.7861  -6.7861  -6.7859  -6.7859

          k = 0.0000 0.5774 0.0763 ( 95132 PWs)   bands (ev):

   -30.0465 -30.0465 -30.0464 -30.0464 -30.0464 -30.0464 -30.0358 -30.0358
   -30.0356 -30.0356 -30.0356 -30.0356 -30.0209 -30.0209 -30.0209 -30.0209
   -30.0208 -30.0208 -30.0117 -30.0117 -30.0116 -30.0116 -30.0116 -30.0116
   -28.5894 -28.5894 -28.5893 -28.5893 -28.5893 -28.5893 -28.5784 -28.5784
   -28.5782 -28.5782 -28.5782 -28.5782 -28.5682 -28.5682 -28.5681 -28.5681
   -28.5681 -28.5681 -28.5585 -28.5585 -28.5583 -28.5583 -28.5583 -28.5583
[...]
   -28.5680 -28.5680 -28.5584 -28.5584 -28.5583 -28.5583 -28.5582 -28.5582
   -28.5561 -28.5560 -28.5560 -28.5560 -28.5560 -28.5559 -28.5469 -28.5469
   -28.5468 -28.5468 -28.5468 -28.5468  -7.7850  -7.7850  -7.7848  -7.7840
    -7.7839  -7.7837  -7.7683  -7.7683  -7.7681  -7.7677  -7.7677  -7.7676
    -7.7549  -7.7547  -7.7546  -7.7546  -7.7545  -7.7543  -7.7286  -7.7285
    -7.7284  -7.7279  -7.7279  -7.7277  -6.9648  -6.9648  -6.9646  -6.9630
    -6.9629  -6.9627  -6.9445  -6.9444  -6.9444  -6.9443  -6.9443  -6.9442
    -6.9291  -6.9291  -6.9289  -6.9279  -6.9278  -6.9276  -6.8967  -6.8966
    -6.8964  -6.8964  -6.8963  -6.8962  -6.8356  -6.8355  -6.8354  -6.8354
    -6.8353  -6.8351  -6.8053  -6.8052  -6.8051  -6.8050  -6.8050  -6.8048

          k = 0.0323 0.0559-0.0000 ( 95039 PWs)   bands (ev):

   -30.0470 -30.0470 -30.0470 -30.0470 -30.0469 -30.0469 -30.0363 -30.0363
   -30.0362 -30.0362 -30.0362 -30.0362 -30.0211 -30.0211 -30.0211 -30.0211
   -30.0210 -30.0210 -30.0119 -30.0119 -30.0118 -30.0117 -30.0117 -30.0117
   -28.5903 -28.5903 -28.5903 -28.5902 -28.5902 -28.5902 -28.5792 -28.5792
   -28.5791 -28.5791 -28.5791 -28.5791 -28.5681 -28.5681 -28.5681 -28.5681
   -28.5680 -28.5680 -28.5584 -28.5584 -28.5583 -28.5583 -28.5582 -28.5582
   -28.5561 -28.5560 -28.5560 -28.5560 -28.5560 -28.5560 -28.5469 -28.5469
   -28.5468 -28.5468 -28.5468 -28.5468  -7.7845  -7.7845  -7.7843  -7.7838
    -7.7837  -7.7836  -7.7680  -7.7680  -7.7679  -7.7678  -7.7678  -7.7677
    -7.7547  -7.7545  -7.7545  -7.7544  -7.7543  -7.7542  -7.7282  -7.7282
    -7.7280  -7.7277  -7.7276  -7.7275  -6.9635  -6.9635  -6.9633  -6.9623
    -6.9622  -6.9620  -6.9436  -6.9436  -6.9435  -6.9435  -6.9434  -6.9433
    -6.9290  -6.9290  -6.9288  -6.9282  -6.9282  -6.9280  -6.8968  -6.8967
    -6.8967  -6.8966  -6.8966  -6.8965  -6.8344  -6.8343  -6.8343  -6.8342
    -6.8342  -6.8340  -6.8060  -6.8059  -6.8058  -6.8058  -6.8057  -6.8056

          k = 0.0215 0.0372-0.0000 ( 95043 PWs)   bands (ev):

   -30.0470 -30.0470 -30.0470 -30.0470 -30.0469 -30.0469 -30.0363 -30.0363
   -30.0362 -30.0362 -30.0362 -30.0362 -30.0211 -30.0211 -30.0211 -30.0211
   -30.0210 -30.0210 -30.0119 -30.0119 -30.0118 -30.0117 -30.0117 -30.0117
   -28.5903 -28.5903 -28.5903 -28.5903 -28.5902 -28.5902 -28.5793 -28.5793
   -28.5792 -28.5792 -28.5791 -28.5791 -28.5681 -28.5681 -28.5681 -28.5681
   -28.5680 -28.5680 -28.5584 -28.5584 -28.5583 -28.5583 -28.5582 -28.5582
   -28.5561 -28.5561 -28.5561 -28.5560 -28.5560 -28.5560 -28.5469 -28.5469
   -28.5468 -28.5468 -28.5468 -28.5468  -7.7841  -7.7841  -7.7839  -7.7837
    -7.7836  -7.7835  -7.7679  -7.7679  -7.7678  -7.7678  -7.7678  -7.7677
    -7.7545  -7.7545  -7.7544  -7.7543  -7.7542  -7.7542  -7.7279  -7.7279
    -7.7277  -7.7276  -7.7275  -7.7273  -6.9625  -6.9625  -6.9624  -6.9618
    -6.9617  -6.9616  -6.9429  -6.9429  -6.9429  -6.9429  -6.9427  -6.9427
    -6.9290  -6.9289  -6.9288  -6.9285  -6.9284  -6.9283  -6.8969  -6.8969
    -6.8968  -6.8968  -6.8967  -6.8966  -6.8335  -6.8334  -6.8334  -6.8333
    -6.8332  -6.8332  -6.8065  -6.8064  -6.8064  -6.8063  -6.8063  -6.8062

          k = 0.0108 0.0186-0.0000 ( 95003 PWs)   bands (ev):

   -30.0470 -30.0470 -30.0470 -30.0470 -30.0469 -30.0469 -30.0363 -30.0363
   -30.0362 -30.0362 -30.0362 -30.0362 -30.0211 -30.0211 -30.0211 -30.0211
   -30.0210 -30.0210 -30.0119 -30.0119 -30.0118 -30.0118 -30.0117 -30.0117
   -28.5903 -28.5903 -28.5903 -28.5903 -28.5902 -28.5902 -28.5793 -28.5793
   -28.5792 -28.5792 -28.5791 -28.5791 -28.5681 -28.5681 -28.5681 -28.5681
   -28.5680 -28.5680 -28.5584 -28.5584 -28.5583 -28.5583 -28.5582 -28.5582
   -28.5561 -28.5561 -28.5561 -28.5560 -28.5560 -28.5560 -28.5469 -28.5469
   -28.5468 -28.5468 -28.5468 -28.5468  -7.7839  -7.7838  -7.7837  -7.7836
    -7.7836  -7.7834  -7.7678  -7.7678  -7.7678  -7.7678  -7.7677  -7.7677
    -7.7544  -7.7544  -7.7543  -7.7543  -7.7541  -7.7541  -7.7277  -7.7276
    -7.7275  -7.7275  -7.7275  -7.7273  -6.9619  -6.9619  -6.9617  -6.9615
    -6.9615  -6.9613  -6.9425  -6.9425  -6.9425  -6.9425  -6.9423  -6.9423
    -6.9289  -6.9289  -6.9287  -6.9287  -6.9286  -6.9285  -6.8970  -6.8970
    -6.8969  -6.8969  -6.8968  -6.8967  -6.8329  -6.8329  -6.8328  -6.8328
    -6.8327  -6.8327  -6.8069  -6.8068  -6.8068  -6.8067  -6.8066  -6.8066

          k = 0.0000 0.0000 0.0000 ( 94937 PWs)   bands (ev):

   -30.0470 -30.0470 -30.0470 -30.0470 -30.0469 -30.0469 -30.0363 -30.0363
   -30.0362 -30.0362 -30.0362 -30.0362 -30.0211 -30.0211 -30.0211 -30.0211
   -30.0210 -30.0210 -30.0119 -30.0119 -30.0118 -30.0118 -30.0117 -30.0117
   -28.5903 -28.5903 -28.5903 -28.5903 -28.5902 -28.5902 -28.5793 -28.5793
   -28.5792 -28.5792 -28.5791 -28.5791 -28.5681 -28.5681 -28.5681 -28.5681
   -28.5680 -28.5680 -28.5584 -28.5584 -28.5583 -28.5583 -28.5582 -28.5582
   -28.5561 -28.5561 -28.5561 -28.5561 -28.5560 -28.5560 -28.5469 -28.5469
   -28.5468 -28.5468 -28.5468 -28.5468  -7.7837  -7.7837  -7.7837  -7.7837
    -7.7835  -7.7835  -7.7678  -7.7678  -7.7678  -7.7678  -7.7677  -7.7677
    -7.7544  -7.7544  -7.7543  -7.7543  -7.7541  -7.7541  -7.7276  -7.7276
    -7.7275  -7.7275  -7.7273  -7.7273  -6.9616  -6.9616  -6.9615  -6.9615
    -6.9614  -6.9614  -6.9424  -6.9424  -6.9424  -6.9424  -6.9422  -6.9422
    -6.9288  -6.9288  -6.9288  -6.9288  -6.9286  -6.9286  -6.8970  -6.8970
    -6.8969  -6.8969  -6.8968  -6.8968  -6.8327  -6.8327  -6.8326  -6.8326
    -6.8325  -6.8325  -6.8070  -6.8070  -6.8069  -6.8069  -6.8067  -6.8067

          k = 0.0000 0.5774 0.0763 ( 95132 PWs)   bands (ev):

   -30.0465 -30.0465 -30.0464 -30.0464 -30.0464 -30.0464 -30.0358 -30.0358
   -30.0356 -30.0356 -30.0356 -30.0356 -30.0209 -30.0209 -30.0209 -30.0209
   -30.0208 -30.0208 -30.0117 -30.0117 -30.0116 -30.0116 -30.0116 -30.0116
   -28.5894 -28.5894 -28.5893 -28.5893 -28.5893 -28.5893 -28.5784 -28.5784
   -28.5782 -28.5782 -28.5782 -28.5782 -28.5682 -28.5682 -28.5681 -28.5681
   -28.5681 -28.5681 -28.5585 -28.5585 -28.5583 -28.5583 -28.5583 -28.5583
   -28.5556 -28.5556 -28.5556 -28.5556 -28.5555 -28.5555 -28.5465 -28.5465
   -28.5464 -28.5464 -28.5464 -28.5464  -7.7997  -7.7997  -7.7996  -7.7996
    -7.7994  -7.7994  -7.7763  -7.7763  -7.7761  -7.7761  -7.7759  -7.7759
    -7.7645  -7.7645  -7.7645  -7.7645  -7.7643  -7.7643  -7.7347  -7.7347
    -7.7346  -7.7346  -7.7344  -7.7344  -7.0043  -7.0043  -7.0040  -7.0040
    -7.0038  -7.0038  -6.9681  -6.9681  -6.9680  -6.9680  -6.9675  -6.9675
    -6.9308  -6.9308  -6.9308  -6.9308  -6.9306  -6.9306  -6.8843  -6.8843
    -6.8842  -6.8842  -6.8841  -6.8841  -6.8543  -6.8543  -6.8542  -6.8542
    -6.8541  -6.8541  -6.7861  -6.7861  -6.7860  -6.7860  -6.7859  -6.7859

          k = 0.0000 0.5774 0.0572 ( 95158 PWs)   bands (ev):

   -30.0465 -30.0465 -30.0464 -30.0464 -30.0464 -30.0464 -30.0358 -30.0358
   -30.0356 -30.0356 -30.0356 -30.0356 -30.0209 -30.0209 -30.0209 -30.0209
   -30.0208 -30.0208 -30.0117 -30.0117 -30.0116 -30.0116 -30.0116 -30.0116
   -28.5894 -28.5894 -28.5893 -28.5893 -28.5893 -28.5893 -28.5784 -28.5784
   -28.5782 -28.5782 -28.5782 -28.5782 -28.5682 -28.5682 -28.5681 -28.5681
   -28.5681 -28.5681 -28.5585 -28.5585 -28.5583 -28.5583 -28.5583 -28.5583
   -28.5556 -28.5556 -28.5556 -28.5556 -28.5555 -28.5555 -28.5465 -28.5465
   -28.5464 -28.5464 -28.5464 -28.5464  -7.7997  -7.7997  -7.7996  -7.7996
    -7.7994  -7.7994  -7.7763  -7.7763  -7.7761  -7.7761  -7.7759  -7.7759
    -7.7645  -7.7645  -7.7645  -7.7645  -7.7643  -7.7643  -7.7347  -7.7347
    -7.7346  -7.7346  -7.7344  -7.7344  -7.0043  -7.0043  -7.0040  -7.0040
    -7.0038  -7.0038  -6.9682  -6.9681  -6.9680  -6.9679  -6.9675  -6.9675
    -6.9308  -6.9308  -6.9308  -6.9308  -6.9306  -6.9306  -6.8843  -6.8843
    -6.8842  -6.8842  -6.8841  -6.8841  -6.8543  -6.8543  -6.8542  -6.8542
    -6.8541  -6.8541  -6.7861  -6.7861  -6.7860  -6.7860  -6.7859  -6.7859

          k = 0.0000 0.5774 0.0381 ( 95138 PWs)   bands (ev):

   -30.0465 -30.0465 -30.0464 -30.0464 -30.0464 -30.0464 -30.0358 -30.0358
   -30.0356 -30.0356 -30.0356 -30.0356 -30.0209 -30.0209 -30.0209 -30.0209
   -30.0208 -30.0208 -30.0117 -30.0117 -30.0116 -30.0116 -30.0116 -30.0116
   -28.5894 -28.5894 -28.5893 -28.5893 -28.5893 -28.5893 -28.5784 -28.5784
   -28.5782 -28.5782 -28.5782 -28.5782 -28.5682 -28.5682 -28.5681 -28.5681
   -28.5681 -28.5681 -28.5585 -28.5585 -28.5583 -28.5583 -28.5583 -28.5583
   -28.5556 -28.5556 -28.5556 -28.5556 -28.5555 -28.5555 -28.5465 -28.5465
   -28.5464 -28.5464 -28.5464 -28.5464  -7.7997  -7.7997  -7.7996  -7.7996
    -7.7994  -7.7994  -7.7763  -7.7763  -7.7761  -7.7761  -7.7759  -7.7759
    -7.7645  -7.7645  -7.7645  -7.7645  -7.7643  -7.7643  -7.7347  -7.7347
    -7.7346  -7.7346  -7.7344  -7.7344  -7.0043  -7.0043  -7.0041  -7.0040
    -7.0038  -7.0037  -6.9682  -6.9682  -6.9679  -6.9679  -6.9676  -6.9676
    -6.9308  -6.9308  -6.9308  -6.9308  -6.9306  -6.9306  -6.8843  -6.8843
    -6.8842  -6.8842  -6.8841  -6.8841  -6.8543  -6.8543  -6.8542  -6.8542
    -6.8541  -6.8541  -6.7861  -6.7861  -6.7860  -6.7860  -6.7859  -6.7859

          k = 0.0000 0.5774 0.0191 ( 95174 PWs)   bands (ev):

   -30.0465 -30.0465 -30.0464 -30.0464 -30.0464 -30.0464 -30.0358 -30.0358
   -30.0356 -30.0356 -30.0356 -30.0356 -30.0209 -30.0209 -30.0209 -30.0209
   -30.0208 -30.0208 -30.0117 -30.0117 -30.0116 -30.0116 -30.0116 -30.0116
   -28.5894 -28.5894 -28.5893 -28.5893 -28.5893 -28.5893 -28.5784 -28.5784
   -28.5782 -28.5782 -28.5782 -28.5782 -28.5682 -28.5682 -28.5681 -28.5681
   -28.5681 -28.5681 -28.5585 -28.5585 -28.5583 -28.5583 -28.5583 -28.5583
   -28.5556 -28.5556 -28.5556 -28.5556 -28.5555 -28.5555 -28.5465 -28.5465
   -28.5464 -28.5464 -28.5464 -28.5464  -7.7997  -7.7997  -7.7996  -7.7996
    -7.7994  -7.7994  -7.7763  -7.7763  -7.7761  -7.7761  -7.7759  -7.7759
    -7.7645  -7.7645  -7.7645  -7.7645  -7.7643  -7.7643  -7.7347  -7.7347
    -7.7346  -7.7346  -7.7344  -7.7344  -7.0043  -7.0042  -7.0041  -7.0040
    -7.0038  -7.0037  -6.9682  -6.9682  -6.9678  -6.9678  -6.9676  -6.9676
    -6.9308  -6.9308  -6.9308  -6.9308  -6.9306  -6.9306  -6.8843  -6.8843
    -6.8842  -6.8842  -6.8841  -6.8841  -6.8543  -6.8543  -6.8542  -6.8542
    -6.8541  -6.8541  -6.7861  -6.7861  -6.7860  -6.7860  -6.7859  -6.7859

          k = 0.0000 0.5774-0.0000 ( 95176 PWs)   bands (ev):

   -30.0465 -30.0465 -30.0464 -30.0464 -30.0464 -30.0464 -30.0358 -30.0358
   -30.0356 -30.0356 -30.0356 -30.0356 -30.0209 -30.0209 -30.0209 -30.0209
   -30.0208 -30.0208 -30.0117 -30.0117 -30.0116 -30.0116 -30.0116 -30.0116
   -28.5894 -28.5894 -28.5893 -28.5893 -28.5893 -28.5893 -28.5784 -28.5784
   -28.5782 -28.5782 -28.5782 -28.5782 -28.5682 -28.5682 -28.5681 -28.5681
   -28.5681 -28.5681 -28.5585 -28.5585 -28.5583 -28.5583 -28.5583 -28.5583
   -28.5556 -28.5556 -28.5556 -28.5556 -28.5555 -28.5555 -28.5465 -28.5465
   -28.5464 -28.5464 -28.5464 -28.5464  -7.7997  -7.7997  -7.7996  -7.7996
    -7.7994  -7.7994  -7.7763  -7.7763  -7.7761  -7.7761  -7.7759  -7.7759
    -7.7645  -7.7645  -7.7645  -7.7645  -7.7643  -7.7643  -7.7347  -7.7347
    -7.7346  -7.7346  -7.7344  -7.7344  -7.0043  -7.0043  -7.0041  -7.0041
    -7.0037  -7.0037  -6.9683  -6.9683  -6.9678  -6.9678  -6.9676  -6.9676
    -6.9308  -6.9308  -6.9308  -6.9308  -6.9306  -6.9306  -6.8843  -6.8843
    -6.8842  -6.8842  -6.8841  -6.8841  -6.8543  -6.8543  -6.8542  -6.8542
    -6.8541  -6.8541  -6.7861  -6.7861  -6.7860  -6.7860  -6.7859  -6.7859

          k = 0.3333 0.5773 0.0763 ( 95262 PWs)   bands (ev):

   -30.0464 -30.0464 -30.0463 -30.0463 -30.0463 -30.0462 -30.0357 -30.0356
   -30.0356 -30.0356 -30.0355 -30.0355 -30.0209 -30.0209 -30.0209 -30.0209
   -30.0208 -30.0208 -30.0117 -30.0117 -30.0116 -30.0116 -30.0116 -30.0116
   -28.5893 -28.5893 -28.5892 -28.5892 -28.5892 -28.5891 -28.5783 -28.5782
   -28.5782 -28.5781 -28.5781 -28.5780 -28.5682 -28.5682 -28.5681 -28.5681
   -28.5681 -28.5680 -28.5586 -28.5584 -28.5584 -28.5584 -28.5583 -28.5583
   -28.5556 -28.5556 -28.5555 -28.5555 -28.5555 -28.5554 -28.5465 -28.5465
   -28.5463 -28.5463 -28.5463 -28.5463  -7.8026  -7.8026  -7.8024  -7.8003
    -7.8002  -7.8002  -7.7912  -7.7910  -7.7909  -7.7790  -7.7790  -7.7788
    -7.7655  -7.7654  -7.7653  -7.7464  -7.7463  -7.7462  -7.7364  -7.7363
    -7.7361  -7.7321  -7.7320  -7.7318  -7.0256  -7.0256  -7.0254  -6.9937
    -6.9937  -6.9935  -6.9778  -6.9777  -6.9776  -6.9650  -6.9649  -6.9648
    -6.9519  -6.9519  -6.9517  -6.8956  -6.8956  -6.8954  -6.8892  -6.8891
    -6.8890  -6.8795  -6.8794  -6.8793  -6.8718  -6.8717  -6.8716  -6.8530
    -6.8530  -6.8528  -6.7882  -6.7881  -6.7880  -6.7829  -6.7828  -6.7826

          k = 0.3333 0.5773 0.0572 ( 95274 PWs)   bands (ev):

   -30.0464 -30.0464 -30.0463 -30.0463 -30.0463 -30.0462 -30.0357 -30.0356
   -30.0356 -30.0356 -30.0355 -30.0355 -30.0209 -30.0209 -30.0209 -30.0209
   -30.0208 -30.0208 -30.0117 -30.0117 -30.0116 -30.0116 -30.0116 -30.0116
   -28.5893 -28.5893 -28.5892 -28.5892 -28.5892 -28.5891 -28.5783 -28.5782
   -28.5782 -28.5781 -28.5781 -28.5780 -28.5682 -28.5682 -28.5681 -28.5681
   -28.5681 -28.5680 -28.5586 -28.5584 -28.5584 -28.5584 -28.5583 -28.5583
   -28.5556 -28.5556 -28.5555 -28.5555 -28.5555 -28.5554 -28.5465 -28.5465
   -28.5463 -28.5463 -28.5463 -28.5463  -7.8026  -7.8026  -7.8024  -7.8003
    -7.8002  -7.8002  -7.7912  -7.7910  -7.7909  -7.7790  -7.7790  -7.7788
    -7.7655  -7.7654  -7.7653  -7.7464  -7.7463  -7.7462  -7.7364  -7.7363
    -7.7361  -7.7321  -7.7320  -7.7318  -7.0256  -7.0256  -7.0254  -6.9937
    -6.9937  -6.9935  -6.9778  -6.9777  -6.9776  -6.9650  -6.9649  -6.9648
    -6.9519  -6.9519  -6.9517  -6.8956  -6.8956  -6.8954  -6.8892  -6.8891
    -6.8890  -6.8795  -6.8794  -6.8793  -6.8718  -6.8717  -6.8716  -6.8530
    -6.8530  -6.8528  -6.7882  -6.7881  -6.7880  -6.7829  -6.7828  -6.7826

          k = 0.3333 0.5773 0.0381 ( 95295 PWs)   bands (ev):

   -30.0464 -30.0464 -30.0463 -30.0463 -30.0463 -30.0462 -30.0357 -30.0356
   -30.0356 -30.0356 -30.0355 -30.0355 -30.0209 -30.0209 -30.0209 -30.0209
   -30.0208 -30.0208 -30.0117 -30.0117 -30.0116 -30.0116 -30.0116 -30.0116
   -28.5893 -28.5893 -28.5892 -28.5892 -28.5892 -28.5891 -28.5783 -28.5782
   -28.5782 -28.5781 -28.5781 -28.5780 -28.5682 -28.5682 -28.5681 -28.5681
   -28.5681 -28.5680 -28.5586 -28.5584 -28.5584 -28.5584 -28.5583 -28.5583
   -28.5556 -28.5556 -28.5555 -28.5555 -28.5555 -28.5554 -28.5465 -28.5465
   -28.5463 -28.5463 -28.5463 -28.5463  -7.8026  -7.8026  -7.8024  -7.8003
    -7.8002  -7.8002  -7.7912  -7.7910  -7.7909  -7.7790  -7.7790  -7.7788
    -7.7655  -7.7654  -7.7653  -7.7464  -7.7463  -7.7462  -7.7364  -7.7363
    -7.7361  -7.7321  -7.7320  -7.7318  -7.0256  -7.0256  -7.0254  -6.9937
    -6.9937  -6.9935  -6.9778  -6.9777  -6.9776  -6.9650  -6.9649  -6.9648
    -6.9519  -6.9519  -6.9517  -6.8956  -6.8956  -6.8954  -6.8892  -6.8891
    -6.8890  -6.8795  -6.8794  -6.8793  -6.8718  -6.8717  -6.8716  -6.8530
    -6.8530  -6.8528  -6.7882  -6.7881  -6.7880  -6.7829  -6.7828  -6.7826

          k = 0.3333 0.5773 0.0191 ( 95289 PWs)   bands (ev):

   -30.0464 -30.0464 -30.0463 -30.0463 -30.0463 -30.0462 -30.0357 -30.0356
   -30.0356 -30.0356 -30.0355 -30.0355 -30.0209 -30.0209 -30.0209 -30.0209
   -30.0208 -30.0208 -30.0117 -30.0117 -30.0116 -30.0116 -30.0116 -30.0116
   -28.5893 -28.5893 -28.5892 -28.5892 -28.5892 -28.5891 -28.5783 -28.5782
   -28.5782 -28.5781 -28.5781 -28.5780 -28.5682 -28.5682 -28.5681 -28.5681
   -28.5681 -28.5680 -28.5586 -28.5584 -28.5584 -28.5584 -28.5583 -28.5583
   -28.5556 -28.5556 -28.5555 -28.5555 -28.5555 -28.5554 -28.5465 -28.5465
   -28.5463 -28.5463 -28.5463 -28.5463  -7.8026  -7.8026  -7.8024  -7.8003
    -7.8002  -7.8002  -7.7912  -7.7910  -7.7909  -7.7790  -7.7790  -7.7788
    -7.7655  -7.7654  -7.7653  -7.7464  -7.7463  -7.7462  -7.7364  -7.7363
    -7.7361  -7.7321  -7.7320  -7.7318  -7.0256  -7.0256  -7.0254  -6.9937
    -6.9937  -6.9935  -6.9778  -6.9777  -6.9776  -6.9650  -6.9649  -6.9648
    -6.9519  -6.9519  -6.9517  -6.8956  -6.8956  -6.8954  -6.8892  -6.8891
    -6.8890  -6.8795  -6.8794  -6.8793  -6.8718  -6.8717  -6.8716  -6.8530
    -6.8530  -6.8528  -6.7882  -6.7881  -6.7880  -6.7829  -6.7828  -6.7826

          k = 0.3333 0.5773-0.0000 ( 95256 PWs)   bands (ev):

   -30.0464 -30.0464 -30.0463 -30.0463 -30.0463 -30.0462 -30.0357 -30.0356
   -30.0356 -30.0356 -30.0355 -30.0355 -30.0209 -30.0209 -30.0209 -30.0209
   -30.0208 -30.0208 -30.0117 -30.0117 -30.0116 -30.0116 -30.0116 -30.0116
   -28.5893 -28.5893 -28.5892 -28.5892 -28.5892 -28.5891 -28.5783 -28.5782
   -28.5782 -28.5781 -28.5781 -28.5780 -28.5682 -28.5682 -28.5681 -28.5681
   -28.5681 -28.5680 -28.5586 -28.5584 -28.5584 -28.5584 -28.5583 -28.5583
   -28.5556 -28.5556 -28.5555 -28.5555 -28.5555 -28.5554 -28.5465 -28.5465
   -28.5463 -28.5463 -28.5463 -28.5463  -7.8026  -7.8026  -7.8024  -7.8003
    -7.8002  -7.8002  -7.7912  -7.7910  -7.7909  -7.7790  -7.7790  -7.7788
    -7.7655  -7.7654  -7.7653  -7.7464  -7.7463  -7.7462  -7.7364  -7.7363
    -7.7361  -7.7321  -7.7320  -7.7318  -7.0256  -7.0256  -7.0254  -6.9937
    -6.9937  -6.9935  -6.9778  -6.9777  -6.9776  -6.9650  -6.9649  -6.9648
    -6.9519  -6.9519  -6.9517  -6.8956  -6.8956  -6.8954  -6.8892  -6.8891
    -6.8890  -6.8795  -6.8794  -6.8793  -6.8718  -6.8717  -6.8716  -6.8530
    -6.8530  -6.8528  -6.7882  -6.7881  -6.7880  -6.7829  -6.7828  -6.7826

     Writing output data file InTegamma.save
 
     init_run     :      1.00s CPU      1.35s WALL (       1 calls)
     electrons    :   2331.32s CPU   2439.11s WALL (       1 calls)

     Called by init_run:
     wfcinit      :      0.00s CPU      0.00s WALL (       1 calls)
     wfcinit:atom :      1.00s CPU      1.51s WALL (     160 calls)
     wfcinit:wfcr :    207.05s CPU    214.94s WALL (     160 calls)
     potinit      :      0.14s CPU      0.21s WALL (       1 calls)

     Called by electrons:
     c_bands      :   2331.31s CPU   2439.10s WALL (       1 calls)
     v_of_rho     :      0.02s CPU      0.03s WALL (       1 calls)
     v_h          :      0.00s CPU      0.00s WALL (       1 calls)
     v_xc         :      0.02s CPU      0.03s WALL (       1 calls)

     Called by c_bands:
     init_us_2    :      0.76s CPU      0.81s WALL (     160 calls)
     cegterg      :   2057.99s CPU   2137.38s WALL (     160 calls)

     Called by sum_band:

     Called by *egterg:
     h_psi        :   1479.36s CPU   1527.21s WALL (    2746 calls)
     g_psi        :      9.84s CPU      9.87s WALL (    2426 calls)
     cdiaghg      :    168.61s CPU    187.37s WALL (    2586 calls)
     cegterg:over :    241.28s CPU    246.63s WALL (    2426 calls)
     cegterg:upda :    204.68s CPU    213.11s WALL (    2426 calls)
     cegterg:last :    119.68s CPU    122.60s WALL (     784 calls)
     cdiaghg:chol :      8.92s CPU      8.88s WALL (    2586 calls)
     cdiaghg:inve :      8.05s CPU      8.10s WALL (    2586 calls)
     cdiaghg:para :     32.12s CPU     47.85s WALL (    5172 calls)

     Called by h_psi:
     h_psi:pot    :   1468.70s CPU   1516.54s WALL (    2746 calls)
     h_psi:calbec :    167.95s CPU    171.30s WALL (    2746 calls)
     vloc_psi     :   1129.96s CPU   1170.43s WALL (    2746 calls)
     add_vuspsi   :    170.76s CPU    174.80s WALL (    2746 calls)

     General routines
     calbec       :    167.95s CPU    171.29s WALL (    2746 calls)
     fft          :      0.02s CPU      0.02s WALL (      13 calls)
     fftw         :   1075.57s CPU   1115.72s WALL ( 1144304 calls)
     davcio       :      0.14s CPU     19.51s WALL (     160 calls)
 
     Parallel routines
     fft_scatter  :    805.36s CPU    820.65s WALL ( 1144317 calls)
 
     PWSCF        : 38m53.42s CPU    40m44.62s WALL

 
   This run was terminated on:  12:34:31   7Apr2022            

=------------------------------------------------------------------------------=
   JOB DONE.
=------------------------------------------------------------------------------=
