
     Program BANDS v.6.1 (svn rev. 13369) starts on 23Sep2021 at  2:59:43 

     This program is part of the open-source Quantum ESPRESSO suite
     for quantum simulation of materials; please cite
         "P. Giannozzi et al., J. Phys.:Condens. Matter 21 395502 (2009);
          URL http://www.quantum-espresso.org", 
     in publications or presentations arising from this work. More details at
     http://www.quantum-espresso.org/quote

     Parallel version (MPI), running on    48 processors
     R & G space division:  proc/nbgrp/npool/nimage =      48

     Reading data from directory:
     /share/inl/marcel/TB/GaSegammap_outdir/GaSegammap.save

   Info: using nr1, nr2, nr3 values from input

   Info: using nr1, nr2, nr3 values from input

     IMPORTANT: XC functional enforced from input :
     Exchange-correlation      = SLA+PW+PSX+PSC ( 1  4 10  8 0 0)
     Any further DFT definition will be discarded
     Please, verify this is what you really want

 
     Parallelization info
     --------------------
     sticks:   dense  smooth     PW     G-vecs:    dense   smooth      PW
     Min          43      43     12                10443    10443    1502
     Max          44      44     13                10480    10480    1525
     Sum        2107    2107    583               502133   502133   72577
 
     high-symmetry point: -0.0000-0.0000 0.0801   x coordinate   0.0000
     high-symmetry point:  0.0000 0.5956 0.0801   x coordinate   0.5956
     high-symmetry point:  0.3439 0.5956 0.0801   x coordinate   0.9395
     high-symmetry point: -0.0000-0.0000 0.0801   x coordinate   1.6272
     high-symmetry point:  0.0000 0.0000 0.0000   x coordinate   1.7073
     high-symmetry point:  0.0000 0.5956-0.0000   x coordinate   2.3030
     high-symmetry point:  0.3439 0.5956-0.0000   x coordinate   2.6468
     high-symmetry point:  0.0000 0.0000 0.0000   x coordinate   3.3346
     high-symmetry point:  0.0000 0.5956 0.0801   x coordinate   3.3346
     high-symmetry point:  0.0000 0.5956-0.0000   x coordinate   3.4147
     high-symmetry point:  0.3439 0.5956 0.0801   x coordinate   3.4147
     high-symmetry point:  0.3439 0.5956-0.0000   x coordinate   3.4948

     Plottable bands (eV) written to file GaSegammap.bands.dat.gnu
     Bands written to file GaSegammap.bands.dat

 **************************************************************************

                    xk=(  -0.00000,  -0.00000,   0.08009  )

     point group C_3v (3m)  
     there are  3 classes
     the character table:

       E     2C3   3s_v 
A_1    1.00  1.00  1.00
A_2    1.00  1.00 -1.00
E      2.00 -1.00  0.00

     the symmetry operations in each class and the name of the first element:

     E        1
                                                                 
     2C3      2    3
                                                                 
     3s_v     4    5    6
                                                                 

     Band symmetry, C_3v (3m)   point group:

     e(  1 -  2) =     -8.57846  eV     2   -->   2 A_1  L_1       
     e(  3 -  3) =     -8.57797  eV     1   --> A_1  L_1       
     e(  4 -  9) =     -8.42536  eV     6   -->   3 E    L_3       
     e( 10 - 15) =     -8.37958  eV     6   -->   3 E    L_3       
     e( 16 - 21) =     -8.32942  eV     6   -->   3 E    L_3       
     e( 22 - 22) =     -8.24948  eV     1   --> A_1  L_1       
     e( 23 - 24) =     -8.23992  eV     2   -->   2 A_1  L_1       
     e( 25 - 30) =     -8.21308  eV     6   -->   3 E    L_3       
     e( 31 - 31) =     -7.76247  eV     1   --> A_1  L_1       
     e( 32 - 32) =     -7.76236  eV     1   --> A_1  L_1       
     e( 33 - 33) =     -7.62577  eV     1   --> A_1  L_1       
     e( 34 - 34) =     -7.54533  eV     1   --> A_1  L_1       
     e( 35 - 35) =     -7.40320  eV     1   --> A_1  L_1       
     e( 36 - 36) =     -7.40307  eV     1   --> A_1  L_1       
     e( 37 - 38) =     -0.63924  eV     2   -->   2 A_1  L_1       
     e( 39 - 39) =     -0.37059  eV     1   --> A_1  L_1       
     e( 40 - 40) =      1.73255  eV     1   --> A_1  L_1       
     e( 41 - 41) =      2.42391  eV     1   --> A_1  L_1       
     e( 42 - 42) =      2.42401  eV     1   --> A_1  L_1       
     e( 43 - 44) =      5.00823  eV     2   --> E    L_3       
     e( 45 - 46) =      5.05672  eV     2   --> E    L_3       
     e( 47 - 48) =      5.05698  eV     2   --> E    L_3       
     e( 49 - 50) =      5.15714  eV     2   --> E    L_3       
     e( 51 - 52) =      5.15737  eV     2   --> E    L_3       
     e( 53 - 53) =      5.18918  eV     1   --> A_1  L_1       
     e( 54 - 54) =      5.18934  eV     1   --> A_1  L_1       
     e( 55 - 56) =      5.20838  eV     2   --> E    L_3       
     e( 57 - 57) =      6.39269  eV     1   --> A_1  L_1       
     e( 58 - 58) =      7.14973  eV     1   --> A_1  L_1       
     e( 59 - 60) =      7.91286  eV     2   -->   2 A_1  L_1       
     e( 61 - 61) =      8.48161  eV     1   --> A_1  L_1       
     e( 62 - 63) =      8.53797  eV     2   -->   2 A_1  L_1       
     e( 64 - 67) =     10.29588  eV     4   -->   2 E    L_3       
     e( 68 - 69) =     10.35311  eV     2   --> E    L_3       
     e( 70 - 71) =     11.59484  eV     2   --> E    L_3       
     e( 72 - 75) =     11.70841  eV     4   -->   2 E    L_3       
     e( 76 - 76) =     12.56966  eV     1   --> A_1  L_1       
     e( 77 - 77) =     12.57520  eV     1   --> A_1  L_1       
     e( 78 - 78) =     12.57560  eV     1   --> A_1  L_1       
     e( 79 - 80) =     13.62698  eV     2   -->   2 A_1  L_1       
     e( 81 - 81) =     14.58236  eV     1   --> A_1  L_1       
     e( 82 - 82) =     14.70656  eV     1   --> A_1  L_1       
     e( 83 - 83) =     15.69190  eV     1   --> A_1  L_1       
     e( 84 - 84) =     15.71973  eV     1   --> A_1  L_1       
     e( 85 - 85) =     15.71985  eV     1   --> A_1  L_1       
     e( 86 - 87) =     15.78124  eV     2   --> E    L_3       
     e( 88 - 89) =     15.78138  eV     2   --> E    L_3       
     e( 90 - 91) =     15.87441  eV     2   -->   2 A_1  L_1       
     e( 92 - 93) =     15.92902  eV     2   --> E    L_3       
     e( 94 - 95) =     16.35363  eV     2   --> E    L_3       
     e( 96 - 99) =     16.53687  eV     4   -->   2 E    L_3       
     e(100 -100) =     17.19720  eV     1   --> A_1  L_1       
     e(101 -101) =     17.19734  eV     1   --> A_1  L_1       
     e(102 -102) =     17.62355  eV     1   --> A_1  L_1       
     e(103 -103) =     17.88255  eV     1   --> A_1  L_1       
     e(104 -105) =     18.50850  eV     2   --> E    L_3       
     e(106 -107) =     18.50860  eV     2   --> E    L_3       
     e(108 -109) =     18.80423  eV     2   -->   2 A_1  L_1       
     e(110 -111) =     19.23056  eV     2   --> E    L_3       
     e(112 -113) =     19.39592  eV     2   --> E    L_3       
     e(114 -117) =     19.90902  eV     4   -->   2 E    L_3       
     e(118 -119) =     20.66810  eV     2   -->   2 A_1  L_1       
     e(120 -120) =     21.21643  eV     1   --> A_1  L_1       

 **************************************************************************

 **************************************************************************

                    xk=(   0.00000,   0.02206,   0.08009  )

     point group C_s (m)    
     there are  2 classes
     the character table:

       E     s    
A'     1.00  1.00
A''    1.00 -1.00

     the symmetry operations in each class and the name of the first element:

     E        1
                                                                 
     s        2
                                                                 

     Band symmetry, C_s (m)     point group:

     e(  1 -  2) =     -8.57845  eV     2   -->   2 A'             
     e(  3 -  3) =     -8.57795  eV     1   --> A'             
     e(  4 -  6) =     -8.42656  eV     3   -->   3 A'             
     e(  7 -  9) =     -8.42537  eV     3   -->   3 A''            
     e( 10 - 10) =     -8.38138  eV     1   --> A'             
     e( 11 - 12) =     -8.38115  eV     2   -->   2 A'             
     e( 13 - 15) =     -8.37940  eV     3   -->   3 A''            
     e( 16 - 18) =     -8.32969  eV     3   -->   3 A'             
     e( 19 - 21) =     -8.32929  eV     3   -->   3 A''            
     e( 22 - 22) =     -8.25000  eV     1   --> A'             
     e( 23 - 24) =     -8.24098  eV     2   -->   2 A'             
     e( 25 - 27) =     -8.21310  eV     3   -->   3 A''            
     e( 28 - 28) =     -8.21136  eV     1   --> A'             
     e( 29 - 30) =     -8.21115  eV     2   -->   2 A'             
     e( 31 - 31) =     -7.75788  eV     1   --> A'             
     e( 32 - 32) =     -7.75777  eV     1   --> A'             
     e( 33 - 33) =     -7.62144  eV     1   --> A'             
     e( 34 - 34) =     -7.54153  eV     1   --> A'             
     e( 35 - 35) =     -7.39948  eV     1   --> A'             
     e( 36 - 36) =     -7.39935  eV     1   --> A'             
     e( 37 - 38) =     -0.63695  eV     2   -->   2 A'             
     e( 39 - 39) =     -0.36918  eV     1   --> A'             
     e( 40 - 40) =      1.73468  eV     1   --> A'             
     e( 41 - 41) =      2.42227  eV     1   --> A'             
     e( 42 - 42) =      2.42237  eV     1   --> A'             
     e( 43 - 43) =      4.97844  eV     1   --> A'             
     e( 44 - 44) =      5.00135  eV     1   --> A''            
     e( 45 - 45) =      5.01674  eV     1   --> A'             
     e( 46 - 46) =      5.01838  eV     1   --> A'             
     e( 47 - 47) =      5.04490  eV     1   --> A''            
     e( 48 - 48) =      5.05278  eV     1   --> A'             
     e( 49 - 49) =      5.05597  eV     1   --> A''            
     e( 50 - 50) =      5.05843  eV     1   --> A'             
     e( 51 - 51) =      5.14596  eV     1   --> A''            
     e( 52 - 52) =      5.15748  eV     1   --> A''            
     e( 53 - 53) =      5.16259  eV     1   --> A'             
     e( 54 - 54) =      5.20341  eV     1   --> A''            
     e( 55 - 55) =      5.27279  eV     1   --> A'             
     e( 56 - 56) =      5.27708  eV     1   --> A'             
     e( 57 - 57) =      6.38996  eV     1   --> A'             
     e( 58 - 58) =      7.19249  eV     1   --> A'             
     e( 59 - 59) =      7.93759  eV     1   --> A'             
     e( 60 - 60) =      7.93796  eV     1   --> A'             
     e( 61 - 61) =      8.51021  eV     1   --> A'             
     e( 62 - 63) =      8.56633  eV     2   -->   2 A'             
     e( 64 - 64) =     10.27144  eV     1   --> A'             
     e( 65 - 65) =     10.27839  eV     1   --> A'             
     e( 66 - 66) =     10.29976  eV     1   --> A''            
     e( 67 - 67) =     10.30701  eV     1   --> A''            
     e( 68 - 68) =     10.33784  eV     1   --> A'             
     e( 69 - 69) =     10.35953  eV     1   --> A''            
     e( 70 - 70) =     11.57640  eV     1   --> A'             
     e( 71 - 71) =     11.60649  eV     1   --> A''            
     e( 72 - 72) =     11.68704  eV     1   --> A'             
     e( 73 - 73) =     11.69931  eV     1   --> A'             
     e( 74 - 74) =     11.71337  eV     1   --> A''            
     e( 75 - 75) =     11.72552  eV     1   --> A''            
     e( 76 - 76) =     12.57601  eV     1   --> A'             
     e( 77 - 77) =     12.57709  eV     1   --> A'             
     e( 78 - 78) =     12.57751  eV     1   --> A'             
     e( 79 - 79) =     13.64173  eV     1   --> A'             
     e( 80 - 80) =     13.64367  eV     1   --> A'             
     e( 81 - 81) =     14.60870  eV     1   --> A'             
     e( 82 - 82) =     14.68191  eV     1   --> A'             
     e( 83 - 83) =     15.62774  eV     1   --> A'             
     e( 84 - 84) =     15.67807  eV     1   --> A'             
     e( 85 - 85) =     15.68065  eV     1   --> A''            
     e( 86 - 86) =     15.68153  eV     1   --> A'             
     e( 87 - 87) =     15.72890  eV     1   --> A'             
     e( 88 - 88) =     15.82333  eV     1   --> A'             
     e( 89 - 89) =     15.86259  eV     1   --> A'             
     e( 90 - 90) =     15.86767  eV     1   --> A''            
     e( 91 - 91) =     15.89568  eV     1   --> A''            
     e( 92 - 92) =     15.90019  eV     1   --> A'             
     e( 93 - 93) =     15.94306  eV     1   --> A'             
     e( 94 - 94) =     16.39140  eV     1   --> A''            
     e( 95 - 95) =     16.41021  eV     1   --> A'             
     e( 96 - 96) =     16.43338  eV     1   --> A''            
     e( 97 - 97) =     16.44689  eV     1   --> A'             
     e( 98 - 98) =     16.62280  eV     1   --> A'             
     e( 99 - 99) =     16.65241  eV     1   --> A''            
     e(100 -100) =     17.23481  eV     1   --> A'             
     e(101 -101) =     17.25567  eV     1   --> A'             
     e(102 -102) =     17.57961  eV     1   --> A'             
     e(103 -103) =     17.93343  eV     1   --> A'             
     e(104 -104) =     18.38863  eV     1   --> A''            
     e(105 -105) =     18.40238  eV     1   --> A'             
     e(106 -106) =     18.61561  eV     1   --> A'             
     e(107 -107) =     18.65678  eV     1   --> A''            
     e(108 -108) =     18.82885  eV     1   --> A'             
     e(109 -109) =     18.86978  eV     1   --> A'             
     e(110 -110) =     19.12391  eV     1   --> A'             
     e(111 -111) =     19.14384  eV     1   --> A''            
     e(112 -112) =     19.49891  eV     1   --> A''            
     e(113 -113) =     19.52424  eV     1   --> A'             
     e(114 -114) =     19.75107  eV     1   --> A'             
     e(115 -115) =     19.77895  eV     1   --> A''            
     e(116 -116) =     20.02913  eV     1   --> A'             
     e(117 -117) =     20.06330  eV     1   --> A''            
     e(118 -118) =     20.71320  eV     1   --> A'             
     e(119 -119) =     20.71641  eV     1   --> A'             
     e(120 -120) =     21.25563  eV     1   --> A'             

 **************************************************************************

 **************************************************************************

                    xk=(   0.00000,   0.04412,   0.08009  )

     Band symmetry, C_s (m)     point group:

     e(  1 -  2) =     -8.57841  eV     2   -->   2 A'             
     e(  3 -  3) =     -8.57789  eV     1   --> A'             
     e(  4 -  5) =     -8.43033  eV     2   -->   2 A'             
     e(  6 -  6) =     -8.42969  eV     1   --> A'             
     e(  7 -  9) =     -8.42541  eV     3   -->   3 A''            
     e( 10 - 10) =     -8.38671  eV     1   --> A'             
     e( 11 - 11) =     -8.38576  eV     1   --> A'             
     e( 12 - 12) =     -8.38562  eV     1   --> A'             
     e( 13 - 15) =     -8.37888  eV     3   -->   3 A''            
     e( 16 - 17) =     -8.33050  eV     2   -->   2 A'             
     e( 18 - 18) =     -8.33032  eV     1   --> A'             
     e( 19 - 21) =     -8.32890  eV     3   -->   3 A''            
     e( 22 - 22) =     -8.25126  eV     1   --> A'             
     e( 23 - 24) =     -8.24341  eV     2   -->   2 A'             
     e( 25 - 27) =     -8.21318  eV     3   -->   3 A''            
     e( 28 - 28) =     -8.20690  eV     1   --> A'             
     e( 29 - 30) =     -8.20624  eV     2   -->   2 A'             
     e( 31 - 31) =     -7.74426  eV     1   --> A'             
     e( 32 - 32) =     -7.74414  eV     1   --> A'             
     e( 33 - 33) =     -7.60853  eV     1   --> A'             
     e( 34 - 34) =     -7.53019  eV     1   --> A'             
     e( 35 - 35) =     -7.38838  eV     1   --> A'             
     e( 36 - 36) =     -7.38825  eV     1   --> A'             
     e( 37 - 38) =     -0.63013  eV     2   -->   2 A'             
     e( 39 - 39) =     -0.36505  eV     1   --> A'             
     e( 40 - 40) =      1.74097  eV     1   --> A'             
     e( 41 - 41) =      2.41701  eV     1   --> A'             
     e( 42 - 42) =      2.41715  eV     1   --> A'             
     e( 43 - 43) =      4.86341  eV     1   --> A'             
     e( 44 - 44) =      4.88877  eV     1   --> A'             
     e( 45 - 45) =      4.89149  eV     1   --> A'             
     e( 46 - 46) =      4.94662  eV     1   --> A'             
     e( 47 - 47) =      4.97831  eV     1   --> A'             
     e( 48 - 48) =      4.98101  eV     1   --> A''            
     e( 49 - 49) =      5.02045  eV     1   --> A''            
     e( 50 - 50) =      5.03782  eV     1   --> A'             
     e( 51 - 51) =      5.04239  eV     1   --> A''            
     e( 52 - 52) =      5.12385  eV     1   --> A''            
     e( 53 - 53) =      5.14674  eV     1   --> A''            
     e( 54 - 54) =      5.18859  eV     1   --> A''            
     e( 55 - 55) =      5.34756  eV     1   --> A'             
     e( 56 - 56) =      5.35350  eV     1   --> A'             
     e( 57 - 57) =      6.38164  eV     1   --> A'             
     e( 58 - 58) =      7.30872  eV     1   --> A'             
     e( 59 - 59) =      8.00679  eV     1   --> A'             
     e( 60 - 60) =      8.00971  eV     1   --> A'             
     e( 61 - 61) =      8.59198  eV     1   --> A'             
     e( 62 - 62) =      8.64766  eV     1   --> A'             
     e( 63 - 63) =      8.64793  eV     1   --> A'             
     e( 64 - 64) =     10.20940  eV     1   --> A'             
     e( 65 - 65) =     10.22088  eV     1   --> A'             
     e( 66 - 66) =     10.29419  eV     1   --> A'             
     e( 67 - 67) =     10.31853  eV     1   --> A''            
     e( 68 - 68) =     10.33244  eV     1   --> A''            
     e( 69 - 69) =     10.37845  eV     1   --> A''            
     e( 70 - 70) =     11.52439  eV     1   --> A'             
     e( 71 - 71) =     11.63751  eV     1   --> A'             
     e( 72 - 72) =     11.64119  eV     1   --> A''            
     e( 73 - 73) =     11.66235  eV     1   --> A'             
     e( 74 - 74) =     11.74021  eV     1   --> A''            
     e( 75 - 75) =     11.76420  eV     1   --> A''            
     e( 76 - 76) =     12.57502  eV     1   --> A'             
     e( 77 - 77) =     12.58271  eV     1   --> A'             
     e( 78 - 78) =     12.60028  eV     1   --> A'             
     e( 79 - 79) =     13.67850  eV     1   --> A'             
     e( 80 - 80) =     13.69334  eV     1   --> A'             
     e( 81 - 81) =     14.59963  eV     1   --> A'             
     e( 82 - 82) =     14.68661  eV     1   --> A'             
     e( 83 - 83) =     15.46179  eV     1   --> A'             
     e( 84 - 84) =     15.56946  eV     1   --> A'             
     e( 85 - 85) =     15.57726  eV     1   --> A''            
     e( 86 - 86) =     15.65026  eV     1   --> A'             
     e( 87 - 87) =     15.68666  eV     1   --> A'             
     e( 88 - 88) =     15.76017  eV     1   --> A'             
     e( 89 - 89) =     15.82104  eV     1   --> A''            
     e( 90 - 90) =     15.83934  eV     1   --> A'             
     e( 91 - 91) =     15.92198  eV     1   --> A''            
     e( 92 - 92) =     15.95393  eV     1   --> A'             
     e( 93 - 93) =     16.00703  eV     1   --> A'             
     e( 94 - 94) =     16.32989  eV     1   --> A'             
     e( 95 - 95) =     16.35639  eV     1   --> A''            
     e( 96 - 96) =     16.47840  eV     1   --> A''            
     e( 97 - 97) =     16.64312  eV     1   --> A'             
     e( 98 - 98) =     16.68872  eV     1   --> A'             
     e( 99 - 99) =     16.76998  eV     1   --> A''            
     e(100 -100) =     17.28338  eV     1   --> A'             
     e(101 -101) =     17.40564  eV     1   --> A'             
     e(102 -102) =     17.46021  eV     1   --> A'             
     e(103 -103) =     18.07369  eV     1   --> A'             
     e(104 -104) =     18.30485  eV     1   --> A''            
     e(105 -105) =     18.41771  eV     1   --> A'             
     e(106 -106) =     18.64899  eV     1   --> A'             
     e(107 -107) =     18.82597  eV     1   --> A''            
     e(108 -108) =     18.86911  eV     1   --> A'             
     e(109 -109) =     18.97850  eV     1   --> A'             
     e(110 -110) =     19.02640  eV     1   --> A''            
     e(111 -111) =     19.03805  eV     1   --> A'             
     e(112 -112) =     19.61538  eV     1   --> A'             
     e(113 -113) =     19.66552  eV     1   --> A''            
     e(114 -114) =     19.67858  eV     1   --> A''            
     e(115 -115) =     19.73302  eV     1   --> A'             
     e(116 -116) =     20.11673  eV     1   --> A'             
     e(117 -117) =     20.23712  eV     1   --> A''            
     e(118 -118) =     20.83106  eV     1   --> A'             
     e(119 -119) =     20.84351  eV     1   --> A'             
     e(120 -120) =     21.36192  eV     1   --> A'             

 **************************************************************************

 **************************************************************************

                    xk=(   0.00000,   0.06618,   0.08009  )

     Band symmetry, C_s (m)     point group:

     e(  1 -  2) =     -8.57836  eV     2   -->   2 A'             
     e(  3 -  3) =     -8.57781  eV     1   --> A'             
     e(  4 -  4) =     -8.43641  eV     1   --> A'             
     e(  5 -  5) =     -8.43613  eV     1   --> A'             
     e(  6 -  6) =     -8.43495  eV     1   --> A'             
     e(  7 -  9) =     -8.42549  eV     3   -->   3 A''            
     e( 10 - 10) =     -8.39492  eV     1   --> A'             
     e( 11 - 11) =     -8.39305  eV     1   --> A'             
     e( 12 - 12) =     -8.39265  eV     1   --> A'             
     e( 13 - 15) =     -8.37802  eV     3   -->   3 A''            
     e( 16 - 17) =     -8.33170  eV     2   -->   2 A'             
     e( 18 - 18) =     -8.33141  eV     1   --> A'             
     e( 19 - 21) =     -8.32827  eV     3   -->   3 A''            
     e( 22 - 22) =     -8.25277  eV     1   --> A'             
     e( 23 - 23) =     -8.24617  eV     1   --> A'             
     e( 24 - 24) =     -8.24606  eV     1   --> A'             
     e( 25 - 27) =     -8.21330  eV     3   -->   3 A''            
     e( 28 - 28) =     -8.20061  eV     1   --> A'             
     e( 29 - 30) =     -8.19973  eV     2   -->   2 A'             
     e( 31 - 31) =     -7.72201  eV     1   --> A'             
     e( 32 - 32) =     -7.72179  eV     1   --> A'             
     e( 33 - 33) =     -7.58733  eV     1   --> A'             
     e( 34 - 34) =     -7.51143  eV     1   --> A'             
     e( 35 - 35) =     -7.37005  eV     1   --> A'             
     e( 36 - 36) =     -7.36987  eV     1   --> A'             
     e( 37 - 38) =     -0.61896  eV     2   -->   2 A'             
     e( 39 - 39) =     -0.35844  eV     1   --> A'             
     e( 40 - 40) =      1.75114  eV     1   --> A'             
     e( 41 - 41) =      2.40711  eV     1   --> A'             
     e( 42 - 42) =      2.40747  eV     1   --> A'             
     e( 43 - 43) =      4.67294  eV     1   --> A'             
     e( 44 - 44) =      4.71299  eV     1   --> A'             
     e( 45 - 45) =      4.75217  eV     1   --> A'             
     e( 46 - 46) =      4.82127  eV     1   --> A'             
     e( 47 - 47) =      4.86250  eV     1   --> A'             
     e( 48 - 48) =      4.86767  eV     1   --> A'             
     e( 49 - 49) =      4.94806  eV     1   --> A''            
     e( 50 - 50) =      4.98421  eV     1   --> A''            
     e( 51 - 51) =      5.01668  eV     1   --> A''            
     e( 52 - 52) =      5.09145  eV     1   --> A''            
     e( 53 - 53) =      5.12545  eV     1   --> A''            
     e( 54 - 54) =      5.16414  eV     1   --> A''            
     e( 55 - 55) =      5.40446  eV     1   --> A'             
     e( 56 - 56) =      5.40821  eV     1   --> A'             
     e( 57 - 57) =      6.36730  eV     1   --> A'             
     e( 58 - 58) =      7.47273  eV     1   --> A'             
     e( 59 - 59) =      8.10821  eV     1   --> A'             
     e( 60 - 60) =      8.11813  eV     1   --> A'             
     e( 61 - 61) =      8.71588  eV     1   --> A'             
     e( 62 - 62) =      8.77182  eV     1   --> A'             
     e( 63 - 63) =      8.77282  eV     1   --> A'             
     e( 64 - 64) =     10.11954  eV     1   --> A'             
     e( 65 - 65) =     10.13053  eV     1   --> A'             
     e( 66 - 66) =     10.22833  eV     1   --> A'             
     e( 67 - 67) =     10.35138  eV     1   --> A''            
     e( 68 - 68) =     10.37079  eV     1   --> A''            
     e( 69 - 69) =     10.40881  eV     1   --> A''            
     e( 70 - 70) =     11.44769  eV     1   --> A'             
     e( 71 - 71) =     11.56694  eV     1   --> A'             
     e( 72 - 72) =     11.60459  eV     1   --> A'             
     e( 73 - 73) =     11.69816  eV     1   --> A''            
     e( 74 - 74) =     11.78832  eV     1   --> A''            
     e( 75 - 75) =     11.82349  eV     1   --> A''            
     e( 76 - 76) =     12.56828  eV     1   --> A'             
     e( 77 - 77) =     12.59080  eV     1   --> A'             
     e( 78 - 78) =     12.63714  eV     1   --> A'             
     e( 79 - 79) =     13.72211  eV     1   --> A'             
     e( 80 - 80) =     13.76824  eV     1   --> A'             
     e( 81 - 81) =     14.45794  eV     1   --> A'             
     e( 82 - 82) =     14.80710  eV     1   --> A'             
     e( 83 - 83) =     15.27210  eV     1   --> A'             
     e( 84 - 84) =     15.42632  eV     1   --> A'             
     e( 85 - 85) =     15.47887  eV     1   --> A''            
     e( 86 - 86) =     15.52149  eV     1   --> A'             
     e( 87 - 87) =     15.62980  eV     1   --> A'             
     e( 88 - 88) =     15.73728  eV     1   --> A''            
     e( 89 - 89) =     15.78395  eV     1   --> A'             
     e( 90 - 90) =     15.84069  eV     1   --> A'             
     e( 91 - 91) =     15.92609  eV     1   --> A''            
     e( 92 - 92) =     15.93615  eV     1   --> A'             
     e( 93 - 93) =     16.04226  eV     1   --> A'             
     e( 94 - 94) =     16.32026  eV     1   --> A''            
     e( 95 - 95) =     16.41548  eV     1   --> A'             
     e( 96 - 96) =     16.57991  eV     1   --> A''            
     e( 97 - 97) =     16.77736  eV     1   --> A'             
     e( 98 - 98) =     16.86391  eV     1   --> A'             
     e( 99 - 99) =     16.88204  eV     1   --> A''            
     e(100 -100) =     17.30479  eV     1   --> A'             
     e(101 -101) =     17.30497  eV     1   --> A'             
     e(102 -102) =     17.58044  eV     1   --> A'             
     e(103 -103) =     18.26143  eV     1   --> A'             
     e(104 -104) =     18.26504  eV     1   --> A''            
     e(105 -105) =     18.56672  eV     1   --> A'             
     e(106 -106) =     18.70087  eV     1   --> A'             
     e(107 -107) =     18.85847  eV     1   --> A'             
     e(108 -108) =     18.91862  eV     1   --> A'             
     e(109 -109) =     18.93112  eV     1   --> A''            
     e(110 -110) =     19.00867  eV     1   --> A''            
     e(111 -111) =     19.06863  eV     1   --> A'             
     e(112 -112) =     19.61487  eV     1   --> A''            
     e(113 -113) =     19.67167  eV     1   --> A'             
     e(114 -114) =     19.84379  eV     1   --> A''            
     e(115 -115) =     19.96740  eV     1   --> A'             
     e(116 -116) =     20.20657  eV     1   --> A'             
     e(117 -117) =     20.42657  eV     1   --> A''            
     e(118 -118) =     20.99883  eV     1   --> A'             
     e(119 -119) =     21.00744  eV     1   --> A'             
     e(120 -120) =     21.45926  eV     1   --> A'             

 **************************************************************************

 **************************************************************************

                    xk=(   0.00000,   0.08824,   0.08009  )

     Band symmetry, C_s (m)     point group:

     e(  1 -  2) =     -8.57832  eV     2   -->   2 A'             
     e(  3 -  3) =     -8.57772  eV     1   --> A'             
     e(  4 -  4) =     -8.44447  eV     1   --> A'             
     e(  5 -  5) =     -8.44385  eV     1   --> A'             
     e(  6 -  6) =     -8.44197  eV     1   --> A'             
     e(  7 -  9) =     -8.42559  eV     3   -->   3 A''            
     e( 10 - 10) =     -8.40526  eV     1   --> A'             
     e( 11 - 11) =     -8.40247  eV     1   --> A'             
     e( 12 - 12) =     -8.40164  eV     1   --> A'             
     e( 13 - 15) =     -8.37683  eV     3   -->   3 A''            
     e( 16 - 16) =     -8.33316  eV     1   --> A'             
     e( 17 - 17) =     -8.33300  eV     1   --> A'             
     e( 18 - 18) =     -8.33276  eV     1   --> A'             
     e( 19 - 21) =     -8.32738  eV     3   -->   3 A''            
     e( 22 - 22) =     -8.25424  eV     1   --> A'             
     e( 23 - 23) =     -8.24874  eV     1   --> A'             
     e( 24 - 24) =     -8.24857  eV     1   --> A'             
     e( 25 - 27) =     -8.21347  eV     3   -->   3 A''            
     e( 28 - 28) =     -8.19336  eV     1   --> A'             
     e( 29 - 29) =     -8.19249  eV     1   --> A'             
     e( 30 - 30) =     -8.19239  eV     1   --> A'             
     e( 31 - 31) =     -7.69167  eV     1   --> A'             
     e( 32 - 32) =     -7.69126  eV     1   --> A'             
     e( 33 - 33) =     -7.55825  eV     1   --> A'             
     e( 34 - 34) =     -7.48549  eV     1   --> A'             
     e( 35 - 35) =     -7.34474  eV     1   --> A'             
     e( 36 - 36) =     -7.34443  eV     1   --> A'             
     e( 37 - 38) =     -0.60377  eV     2   -->   2 A'             
     e( 39 - 39) =     -0.34975  eV     1   --> A'             
     e( 40 - 40) =      1.76462  eV     1   --> A'             
     e( 41 - 41) =      2.39080  eV     1   --> A'             
     e( 42 - 42) =      2.39175  eV     1   --> A'             
     e( 43 - 43) =      4.46062  eV     1   --> A'             
     e( 44 - 44) =      4.51564  eV     1   --> A'             
     e( 45 - 45) =      4.56410  eV     1   --> A'             
     e( 46 - 46) =      4.66646  eV     1   --> A'             
     e( 47 - 47) =      4.66959  eV     1   --> A'             
     e( 48 - 48) =      4.72925  eV     1   --> A'             
     e( 49 - 49) =      4.90376  eV     1   --> A''            
     e( 50 - 50) =      4.93726  eV     1   --> A''            
     e( 51 - 51) =      4.97978  eV     1   --> A''            
     e( 52 - 52) =      5.04959  eV     1   --> A''            
     e( 53 - 53) =      5.09430  eV     1   --> A''            
     e( 54 - 54) =      5.13054  eV     1   --> A''            
     e( 55 - 55) =      5.44602  eV     1   --> A'             
     e( 56 - 56) =      5.44787  eV     1   --> A'             
     e( 57 - 57) =      6.34637  eV     1   --> A'             
     e( 58 - 58) =      7.66000  eV     1   --> A'             
     e( 59 - 59) =      8.22547  eV     1   --> A'             
     e( 60 - 60) =      8.24944  eV     1   --> A'             
     e( 61 - 61) =      8.86606  eV     1   --> A'             
     e( 62 - 62) =      8.92419  eV     1   --> A'             
     e( 63 - 63) =      8.92711  eV     1   --> A'             
     e( 64 - 64) =     10.01548  eV     1   --> A'             
     e( 65 - 65) =     10.01742  eV     1   --> A'             
     e( 66 - 66) =     10.14977  eV     1   --> A'             
     e( 67 - 67) =     10.39680  eV     1   --> A''            
     e( 68 - 68) =     10.42000  eV     1   --> A''            
     e( 69 - 69) =     10.44893  eV     1   --> A''            
     e( 70 - 70) =     11.35852  eV     1   --> A'             
     e( 71 - 71) =     11.48599  eV     1   --> A'             
     e( 72 - 72) =     11.53618  eV     1   --> A'             
     e( 73 - 73) =     11.77614  eV     1   --> A''            
     e( 74 - 74) =     11.85656  eV     1   --> A''            
     e( 75 - 75) =     11.90191  eV     1   --> A''            
     e( 76 - 76) =     12.55430  eV     1   --> A'             
     e( 77 - 77) =     12.59896  eV     1   --> A'             
     e( 78 - 78) =     12.68693  eV     1   --> A'             
     e( 79 - 79) =     13.75490  eV     1   --> A'             
     e( 80 - 80) =     13.85005  eV     1   --> A'             
     e( 81 - 81) =     14.27108  eV     1   --> A'             
     e( 82 - 82) =     14.95979  eV     1   --> A'             
     e( 83 - 83) =     15.06251  eV     1   --> A'             
     e( 84 - 84) =     15.27882  eV     1   --> A'             
     e( 85 - 85) =     15.35125  eV     1   --> A'             
     e( 86 - 86) =     15.39115  eV     1   --> A''            
     e( 87 - 87) =     15.60065  eV     1   --> A'             
     e( 88 - 88) =     15.66011  eV     1   --> A''            
     e( 89 - 89) =     15.77845  eV     1   --> A'             
     e( 90 - 90) =     15.83270  eV     1   --> A'             
     e( 91 - 91) =     15.88554  eV     1   --> A''            
     e( 92 - 92) =     15.88937  eV     1   --> A'             
     e( 93 - 93) =     16.15304  eV     1   --> A'             
     e( 94 - 94) =     16.31699  eV     1   --> A''            
     e( 95 - 95) =     16.60607  eV     1   --> A'             
     e( 96 - 96) =     16.67639  eV     1   --> A''            
     e( 97 - 97) =     16.89434  eV     1   --> A'             
     e( 98 - 98) =     16.98227  eV     1   --> A''            
     e( 99 - 99) =     16.98567  eV     1   --> A'             
     e(100 -100) =     17.25093  eV     1   --> A'             
     e(101 -101) =     17.33023  eV     1   --> A'             
     e(102 -102) =     17.74089  eV     1   --> A'             
     e(103 -103) =     18.27528  eV     1   --> A''            
     e(104 -104) =     18.39049  eV     1   --> A'             
     e(105 -105) =     18.74140  eV     1   --> A'             
     e(106 -106) =     18.81276  eV     1   --> A'             
     e(107 -107) =     18.85323  eV     1   --> A'             
     e(108 -108) =     18.86934  eV     1   --> A''            
     e(109 -109) =     18.92277  eV     1   --> A'             
     e(110 -110) =     19.04182  eV     1   --> A'             
     e(111 -111) =     19.19527  eV     1   --> A''            
     e(112 -112) =     19.59709  eV     1   --> A''            
     e(113 -113) =     19.93121  eV     1   --> A'             
     e(114 -114) =     20.02313  eV     1   --> A''            
     e(115 -115) =     20.21495  eV     1   --> A'             
     e(116 -116) =     20.31757  eV     1   --> A'             
     e(117 -117) =     20.62811  eV     1   --> A''            
     e(118 -118) =     21.11124  eV     1   --> A'             
     e(119 -119) =     21.17805  eV     1   --> A'             
     e(120 -120) =     21.20232  eV     1   --> A'             

 **************************************************************************

 **************************************************************************

                    xk=(   0.00000,   0.11030,   0.08009  )

     Band symmetry, C_s (m)     point group:

     e(  1 -  2) =     -8.57834  eV     2   -->   2 A'             
     e(  3 -  3) =     -8.57767  eV     1   --> A'             
     e(  4 -  4) =     -8.45406  eV     1   --> A'             
     e(  5 -  5) =     -8.45296  eV     1   --> A'             
     e(  6 -  6) =     -8.45047  eV     1   --> A'             
     e(  7 -  9) =     -8.42572  eV     3   -->   3 A''            
     e( 10 - 10) =     -8.41700  eV     1   --> A'             
     e( 11 - 11) =     -8.41345  eV     1   --> A'             
     e( 12 - 12) =     -8.41204  eV     1   --> A'             
     e( 13 - 15) =     -8.37533  eV     3   -->   3 A''            
     e( 16 - 16) =     -8.33475  eV     1   --> A'             
     e( 17 - 17) =     -8.33453  eV     1   --> A'             
     e( 18 - 18) =     -8.33427  eV     1   --> A'             
     e( 19 - 21) =     -8.32626  eV     3   -->   3 A''            
     e( 22 - 22) =     -8.25558  eV     1   --> A'             
     e( 23 - 23) =     -8.25101  eV     1   --> A'             
     e( 24 - 24) =     -8.25078  eV     1   --> A'             
     e( 25 - 27) =     -8.21368  eV     3   -->   3 A''            
     e( 28 - 28) =     -8.18577  eV     1   --> A'             
     e( 29 - 29) =     -8.18506  eV     1   --> A'             
     e( 30 - 30) =     -8.18494  eV     1   --> A'             
     e( 31 - 31) =     -7.65388  eV     1   --> A'             
     e( 32 - 32) =     -7.65313  eV     1   --> A'             
     e( 33 - 33) =     -7.52180  eV     1   --> A'             
     e( 34 - 34) =     -7.45265  eV     1   --> A'             
     e( 35 - 35) =     -7.31276  eV     1   --> A'             
     e( 36 - 36) =     -7.31222  eV     1   --> A'             
     e( 37 - 38) =     -0.58499  eV     2   -->   2 A'             
     e( 39 - 39) =     -0.33960  eV     1   --> A'             
     e( 40 - 40) =      1.78053  eV     1   --> A'             
     e( 41 - 41) =      2.36548  eV     1   --> A'             
     e( 42 - 42) =      2.36765  eV     1   --> A'             
     e( 43 - 43) =      4.23339  eV     1   --> A'             
     e( 44 - 44) =      4.30330  eV     1   --> A'             
     e( 45 - 45) =      4.33854  eV     1   --> A'             
     e( 46 - 46) =      4.46512  eV     1   --> A'             
     e( 47 - 47) =      4.50321  eV     1   --> A'             
     e( 48 - 48) =      4.57465  eV     1   --> A'             
     e( 49 - 49) =      4.84965  eV     1   --> A''            
     e( 50 - 50) =      4.88093  eV     1   --> A''            
     e( 51 - 51) =      4.93288  eV     1   --> A''            
     e( 52 - 52) =      4.99930  eV     1   --> A''            
     e( 53 - 53) =      5.05422  eV     1   --> A''            
     e( 54 - 54) =      5.08847  eV     1   --> A''            
     e( 55 - 55) =      5.47113  eV     1   --> A'             
     e( 56 - 56) =      5.48146  eV     1   --> A'             
     e( 57 - 57) =      6.31808  eV     1   --> A'             
     e( 58 - 58) =      7.85160  eV     1   --> A'             
     e( 59 - 59) =      8.34014  eV     1   --> A'             
     e( 60 - 60) =      8.38861  eV     1   --> A'             
     e( 61 - 61) =      9.02267  eV     1   --> A'             
     e( 62 - 62) =      9.08606  eV     1   --> A'             
     e( 63 - 63) =      9.09413  eV     1   --> A'             
     e( 64 - 64) =      9.89280  eV     1   --> A'             
     e( 65 - 65) =      9.91439  eV     1   --> A'             
     e( 66 - 66) =     10.07117  eV     1   --> A'             
     e( 67 - 67) =     10.45272  eV     1   --> A''            
     e( 68 - 68) =     10.47749  eV     1   --> A''            
     e( 69 - 69) =     10.49664  eV     1   --> A''            
     e( 70 - 70) =     11.27108  eV     1   --> A'             
     e( 71 - 71) =     11.40796  eV     1   --> A'             
     e( 72 - 72) =     11.46945  eV     1   --> A'             
     e( 73 - 73) =     11.87346  eV     1   --> A''            
     e( 74 - 74) =     11.94332  eV     1   --> A''            
     e( 75 - 75) =     11.99748  eV     1   --> A''            
     e( 76 - 76) =     12.53431  eV     1   --> A'             
     e( 77 - 77) =     12.60545  eV     1   --> A'             
     e( 78 - 78) =     12.74850  eV     1   --> A'             
     e( 79 - 79) =     13.76319  eV     1   --> A'             
     e( 80 - 80) =     13.91082  eV     1   --> A'             
     e( 81 - 81) =     14.06214  eV     1   --> A'             
     e( 82 - 82) =     14.84331  eV     1   --> A'             
     e( 83 - 83) =     15.12540  eV     1   --> A'             
     e( 84 - 84) =     15.15633  eV     1   --> A'             
     e( 85 - 85) =     15.17589  eV     1   --> A'             
     e( 86 - 86) =     15.31861  eV     1   --> A''            
     e( 87 - 87) =     15.59729  eV     1   --> A''            
     e( 88 - 88) =     15.62119  eV     1   --> A'             
     e( 89 - 89) =     15.62628  eV     1   --> A'             
     e( 90 - 90) =     15.78051  eV     1   --> A'             
     e( 91 - 91) =     15.82627  eV     1   --> A''            
     e( 92 - 92) =     16.01422  eV     1   --> A'             
     e( 93 - 93) =     16.26765  eV     1   --> A'             
     e( 94 - 94) =     16.32202  eV     1   --> A''            
     e( 95 - 95) =     16.75629  eV     1   --> A''            
     e( 96 - 96) =     16.85006  eV     1   --> A'             
     e( 97 - 97) =     16.89187  eV     1   --> A'             
     e( 98 - 98) =     17.03477  eV     1   --> A'             
     e( 99 - 99) =     17.06591  eV     1   --> A''            
     e(100 -100) =     17.38307  eV     1   --> A'             
     e(101 -101) =     17.44614  eV     1   --> A'             
     e(102 -102) =     17.88608  eV     1   --> A'             
     e(103 -103) =     18.33764  eV     1   --> A''            
     e(104 -104) =     18.36100  eV     1   --> A'             
     e(105 -105) =     18.72146  eV     1   --> A'             
     e(106 -106) =     18.81843  eV     1   --> A'             
     e(107 -107) =     18.84828  eV     1   --> A''            
     e(108 -108) =     19.00747  eV     1   --> A'             
     e(109 -109) =     19.05780  eV     1   --> A'             
     e(110 -110) =     19.32400  eV     1   --> A'             
     e(111 -111) =     19.37009  eV     1   --> A''            
     e(112 -112) =     19.63864  eV     1   --> A''            
     e(113 -113) =     20.19539  eV     1   --> A''            
     e(114 -114) =     20.21524  eV     1   --> A'             
     e(115 -115) =     20.44747  eV     1   --> A'             
     e(116 -116) =     20.46463  eV     1   --> A'             
     e(117 -117) =     20.82144  eV     1   --> A'             
     e(118 -118) =     20.83825  eV     1   --> A''            
     e(119 -119) =     21.34331  eV     1   --> A'             
     e(120 -120) =     21.34774  eV     1   --> A'             

 **************************************************************************

 **************************************************************************

                    xk=(   0.00000,   0.13236,   0.08009  )

     Band symmetry, C_s (m)     point group:

     e(  1 -  2) =     -8.57846  eV     2   -->   2 A'             
     e(  3 -  3) =     -8.57770  eV     1   --> A'             
     e(  4 -  4) =     -8.46469  eV     1   --> A'             
     e(  5 -  5) =     -8.46301  eV     1   --> A'             
     e(  6 -  6) =     -8.46009  eV     1   --> A'             
     e(  7 -  7) =     -8.42953  eV     1   --> A'             
     e(  8 - 10) =     -8.42589  eV     3   -->   3 A''            
     e( 11 - 11) =     -8.42548  eV     1   --> A'             
     e( 12 - 12) =     -8.42338  eV     1   --> A'             
     e( 13 - 15) =     -8.37355  eV     3   -->   3 A''            
     e( 16 - 16) =     -8.33638  eV     1   --> A'             
     e( 17 - 17) =     -8.33611  eV     1   --> A'             
     e( 18 - 18) =     -8.33587  eV     1   --> A'             
     e( 19 - 21) =     -8.32491  eV     3   -->   3 A''            
     e( 22 - 22) =     -8.25679  eV     1   --> A'             
     e( 23 - 23) =     -8.25298  eV     1   --> A'             
     e( 24 - 24) =     -8.25270  eV     1   --> A'             
     e( 25 - 27) =     -8.21394  eV     3   -->   3 A''            
     e( 28 - 28) =     -8.17822  eV     1   --> A'             
     e( 29 - 29) =     -8.17770  eV     1   --> A'             
     e( 30 - 30) =     -8.17759  eV     1   --> A'             
     e( 31 - 31) =     -7.60923  eV     1   --> A'             
     e( 32 - 32) =     -7.60804  eV     1   --> A'             
     e( 33 - 33) =     -7.47851  eV     1   --> A'             
     e( 34 - 34) =     -7.41327  eV     1   --> A'             
     e( 35 - 35) =     -7.27446  eV     1   --> A'             
     e( 36 - 36) =     -7.27357  eV     1   --> A'             
     e( 37 - 38) =     -0.56327  eV     2   -->   2 A'             
     e( 39 - 39) =     -0.32878  eV     1   --> A'             
     e( 40 - 40) =      1.79749  eV     1   --> A'             
     e( 41 - 41) =      2.32764  eV     1   --> A'             
     e( 42 - 42) =      2.33205  eV     1   --> A'             
     e( 43 - 43) =      3.99737  eV     1   --> A'             
     e( 44 - 44) =      4.08158  eV     1   --> A'             
     e( 45 - 45) =      4.09500  eV     1   --> A'             
     e( 46 - 46) =      4.25916  eV     1   --> A'             
     e( 47 - 47) =      4.33387  eV     1   --> A'             
     e( 48 - 48) =      4.41500  eV     1   --> A'             
     e( 49 - 49) =      4.78735  eV     1   --> A''            
     e( 50 - 50) =      4.81667  eV     1   --> A''            
     e( 51 - 51) =      4.87739  eV     1   --> A''            
     e( 52 - 52) =      4.94180  eV     1   --> A''            
     e( 53 - 53) =      5.00634  eV     1   --> A''            
     e( 54 - 54) =      5.03885  eV     1   --> A''            
     e( 55 - 55) =      5.48633  eV     1   --> A'             
     e( 56 - 56) =      5.50774  eV     1   --> A'             
     e( 57 - 57) =      6.28160  eV     1   --> A'             
     e( 58 - 58) =      8.03270  eV     1   --> A'             
     e( 59 - 59) =      8.43289  eV     1   --> A'             
     e( 60 - 60) =      8.52025  eV     1   --> A'             
     e( 61 - 61) =      9.16092  eV     1   --> A'             
     e( 62 - 62) =      9.23202  eV     1   --> A'             
     e( 63 - 63) =      9.25361  eV     1   --> A'             
     e( 64 - 64) =      9.76951  eV     1   --> A'             
     e( 65 - 65) =      9.83908  eV     1   --> A'             
     e( 66 - 66) =     10.00866  eV     1   --> A'             
     e( 67 - 67) =     10.51663  eV     1   --> A''            
     e( 68 - 68) =     10.54030  eV     1   --> A''            
     e( 69 - 69) =     10.54937  eV     1   --> A''            
     e( 70 - 70) =     11.20143  eV     1   --> A'             
     e( 71 - 71) =     11.34856  eV     1   --> A'             
     e( 72 - 72) =     11.41852  eV     1   --> A'             
     e( 73 - 73) =     11.98809  eV     1   --> A''            
     e( 74 - 74) =     12.04659  eV     1   --> A''            
     e( 75 - 75) =     12.10774  eV     1   --> A''            
     e( 76 - 76) =     12.51135  eV     1   --> A'             
     e( 77 - 77) =     12.60994  eV     1   --> A'             
     e( 78 - 78) =     12.82002  eV     1   --> A'             
     e( 79 - 79) =     13.74410  eV     1   --> A'             
     e( 80 - 80) =     13.85045  eV     1   --> A'             
     e( 81 - 81) =     13.92203  eV     1   --> A'             
     e( 82 - 82) =     14.62521  eV     1   --> A'             
     e( 83 - 83) =     15.00161  eV     1   --> A'             
     e( 84 - 84) =     15.07142  eV     1   --> A'             
     e( 85 - 85) =     15.26510  eV     1   --> A''            
     e( 86 - 86) =     15.27406  eV     1   --> A'             
     e( 87 - 87) =     15.47343  eV     1   --> A'             
     e( 88 - 88) =     15.55357  eV     1   --> A''            
     e( 89 - 89) =     15.68535  eV     1   --> A'             
     e( 90 - 90) =     15.73519  eV     1   --> A'             
     e( 91 - 91) =     15.76743  eV     1   --> A''            
     e( 92 - 92) =     16.10605  eV     1   --> A'             
     e( 93 - 93) =     16.32253  eV     1   --> A''            
     e( 94 - 94) =     16.37507  eV     1   --> A'             
     e( 95 - 95) =     16.81303  eV     1   --> A''            
     e( 96 - 96) =     16.84467  eV     1   --> A'             
     e( 97 - 97) =     17.12989  eV     1   --> A'             
     e( 98 - 98) =     17.13072  eV     1   --> A''            
     e( 99 - 99) =     17.19435  eV     1   --> A'             
     e(100 -100) =     17.46167  eV     1   --> A'             
     e(101 -101) =     17.66530  eV     1   --> A'             
     e(102 -102) =     18.03645  eV     1   --> A'             
     e(103 -103) =     18.30297  eV     1   --> A'             
     e(104 -104) =     18.44925  eV     1   --> A''            
     e(105 -105) =     18.53623  eV     1   --> A'             
     e(106 -106) =     18.85704  eV     1   --> A'             
     e(107 -107) =     18.87179  eV     1   --> A''            
     e(108 -108) =     19.24023  eV     1   --> A'             
     e(109 -109) =     19.36188  eV     1   --> A'             
     e(110 -110) =     19.51753  eV     1   --> A''            
     e(111 -111) =     19.68854  eV     1   --> A'             
     e(112 -112) =     19.74814  eV     1   --> A''            
     e(113 -113) =     20.25610  eV     1   --> A'             
     e(114 -114) =     20.35227  eV     1   --> A''            
     e(115 -115) =     20.58237  eV     1   --> A'             
     e(116 -116) =     20.69349  eV     1   --> A'             
     e(117 -117) =     20.82116  eV     1   --> A'             
     e(118 -118) =     21.05330  eV     1   --> A''            
     e(119 -119) =     21.10288  eV     1   --> A'             
     e(120 -120) =     21.42816  eV     1   --> A''            

 **************************************************************************

 **************************************************************************

                    xk=(   0.00000,   0.15442,   0.08009  )

     Band symmetry, C_s (m)     point group:

     e(  1 -  2) =     -8.57875  eV     2   -->   2 A'             
     e(  3 -  3) =     -8.57785  eV     1   --> A'             
     e(  4 -  4) =     -8.47588  eV     1   --> A'             
     e(  5 -  5) =     -8.47354  eV     1   --> A'             
     e(  6 -  6) =     -8.47050  eV     1   --> A'             
     e(  7 -  7) =     -8.44232  eV     1   --> A'             
     e(  8 -  8) =     -8.43810  eV     1   --> A'             
     e(  9 -  9) =     -8.43525  eV     1   --> A'             
     e( 10 - 12) =     -8.42608  eV     3   -->   3 A''            
     e( 13 - 15) =     -8.37150  eV     3   -->   3 A''            
     e( 16 - 16) =     -8.33801  eV     1   --> A'             
     e( 17 - 17) =     -8.33771  eV     1   --> A'             
     e( 18 - 18) =     -8.33749  eV     1   --> A'             
     e( 19 - 21) =     -8.32334  eV     3   -->   3 A''            
     e( 22 - 22) =     -8.25792  eV     1   --> A'             
     e( 23 - 23) =     -8.25471  eV     1   --> A'             
     e( 24 - 24) =     -8.25440  eV     1   --> A'             
     e( 25 - 27) =     -8.21423  eV     3   -->   3 A''            
     e( 28 - 28) =     -8.17092  eV     1   --> A'             
     e( 29 - 30) =     -8.17060  eV     2   -->   2 A'             
     e( 31 - 31) =     -7.55832  eV     1   --> A'             
     e( 32 - 32) =     -7.55658  eV     1   --> A'             
     e( 33 - 33) =     -7.42894  eV     1   --> A'             
     e( 34 - 34) =     -7.36775  eV     1   --> A'             
     e( 35 - 35) =     -7.23026  eV     1   --> A'             
     e( 36 - 36) =     -7.22891  eV     1   --> A'             
     e( 37 - 38) =     -0.53942  eV     2   -->   2 A'             
     e( 39 - 39) =     -0.31832  eV     1   --> A'             
     e( 40 - 40) =      1.81336  eV     1   --> A'             
     e( 41 - 41) =      2.27309  eV     1   --> A'             
     e( 42 - 42) =      2.28119  eV     1   --> A'             
     e( 43 - 43) =      3.75806  eV     1   --> A'             
     e( 44 - 44) =      3.84742  eV     1   --> A'             
     e( 45 - 45) =      3.85547  eV     1   --> A'             
     e( 46 - 46) =      4.05050  eV     1   --> A'             
     e( 47 - 47) =      4.17232  eV     1   --> A'             
     e( 48 - 48) =      4.26021  eV     1   --> A'             
     e( 49 - 49) =      4.71852  eV     1   --> A''            
     e( 50 - 50) =      4.74605  eV     1   --> A''            
     e( 51 - 51) =      4.81477  eV     1   --> A''            
     e( 52 - 52) =      4.87840  eV     1   --> A''            
     e( 53 - 53) =      4.95188  eV     1   --> A''            
     e( 54 - 54) =      4.98277  eV     1   --> A''            
     e( 55 - 55) =      5.49317  eV     1   --> A'             
     e( 56 - 56) =      5.52813  eV     1   --> A'             
     e( 57 - 57) =      6.23601  eV     1   --> A'             
     e( 58 - 58) =      8.19069  eV     1   --> A'             
     e( 59 - 59) =      8.48577  eV     1   --> A'             
     e( 60 - 60) =      8.62875  eV     1   --> A'             
     e( 61 - 61) =      9.25305  eV     1   --> A'             
     e( 62 - 62) =      9.32891  eV     1   --> A'             
     e( 63 - 63) =      9.37579  eV     1   --> A'             
     e( 64 - 64) =      9.66827  eV     1   --> A'             
     e( 65 - 65) =      9.81688  eV     1   --> A'             
     e( 66 - 66) =      9.97904  eV     1   --> A'             
     e( 67 - 67) =     10.58575  eV     1   --> A''            
     e( 68 - 68) =     10.60435  eV     1   --> A''            
     e( 69 - 69) =     10.60527  eV     1   --> A''            
     e( 70 - 70) =     11.16746  eV     1   --> A'             
     e( 71 - 71) =     11.32509  eV     1   --> A'             
     e( 72 - 72) =     11.39885  eV     1   --> A'             
     e( 73 - 73) =     12.11764  eV     1   --> A''            
     e( 74 - 74) =     12.16395  eV     1   --> A''            
     e( 75 - 75) =     12.22971  eV     1   --> A''            
     e( 76 - 76) =     12.48902  eV     1   --> A'             
     e( 77 - 77) =     12.61330  eV     1   --> A'             
     e( 78 - 78) =     12.89737  eV     1   --> A'             
     e( 79 - 79) =     13.65214  eV     1   --> A'             
     e( 80 - 80) =     13.70573  eV     1   --> A'             
     e( 81 - 81) =     13.87634  eV     1   --> A'             
     e( 82 - 82) =     14.41628  eV     1   --> A'             
     e( 83 - 83) =     14.83753  eV     1   --> A'             
     e( 84 - 84) =     14.97925  eV     1   --> A'             
     e( 85 - 85) =     15.23401  eV     1   --> A''            
     e( 86 - 86) =     15.34342  eV     1   --> A'             
     e( 87 - 87) =     15.38867  eV     1   --> A'             
     e( 88 - 88) =     15.53242  eV     1   --> A''            
     e( 89 - 89) =     15.70096  eV     1   --> A'             
     e( 90 - 90) =     15.71865  eV     1   --> A''            
     e( 91 - 91) =     15.76459  eV     1   --> A'             
     e( 92 - 92) =     16.16864  eV     1   --> A'             
     e( 93 - 93) =     16.31902  eV     1   --> A''            
     e( 94 - 94) =     16.48196  eV     1   --> A'             
     e( 95 - 95) =     16.84534  eV     1   --> A''            
     e( 96 - 96) =     16.91460  eV     1   --> A'             
     e( 97 - 97) =     17.17777  eV     1   --> A''            
     e( 98 - 98) =     17.36705  eV     1   --> A'             
     e( 99 - 99) =     17.42457  eV     1   --> A'             
     e(100 -100) =     17.56461  eV     1   --> A'             
     e(101 -101) =     17.80012  eV     1   --> A'             
     e(102 -102) =     18.18161  eV     1   --> A'             
     e(103 -103) =     18.35656  eV     1   --> A'             
     e(104 -104) =     18.40066  eV     1   --> A'             
     e(105 -105) =     18.60349  eV     1   --> A''            
     e(106 -106) =     18.90195  eV     1   --> A'             
     e(107 -107) =     18.93860  eV     1   --> A''            
     e(108 -108) =     19.48352  eV     1   --> A'             
     e(109 -109) =     19.65275  eV     1   --> A''            
     e(110 -110) =     19.69312  eV     1   --> A'             
     e(111 -111) =     19.89554  eV     1   --> A''            
     e(112 -112) =     20.05176  eV     1   --> A'             
     e(113 -113) =     20.08240  eV     1   --> A'             
     e(114 -114) =     20.48654  eV     1   --> A''            
     e(115 -115) =     20.70472  eV     1   --> A'             
     e(116 -116) =     20.71725  eV     1   --> A'             
     e(117 -117) =     21.05329  eV     1   --> A'             
     e(118 -118) =     21.12345  eV     1   --> A'             
     e(119 -119) =     21.26906  eV     1   --> A''            
     e(120 -120) =     21.34605  eV     1   --> A''            

 **************************************************************************

 **************************************************************************

                    xk=(   0.00000,   0.17648,   0.08009  )

     Band symmetry, C_s (m)     point group:

     e(  1 -  2) =     -8.57931  eV     2   -->   2 A'             
     e(  3 -  3) =     -8.57822  eV     1   --> A'             
     e(  4 -  4) =     -8.48721  eV     1   --> A'             
     e(  5 -  5) =     -8.48417  eV     1   --> A'             
     e(  6 -  6) =     -8.48136  eV     1   --> A'             
     e(  7 -  7) =     -8.45499  eV     1   --> A'             
     e(  8 -  8) =     -8.45095  eV     1   --> A'             
     e(  9 -  9) =     -8.44729  eV     1   --> A'             
     e( 10 - 12) =     -8.42631  eV     3   -->   3 A''            
     e( 13 - 15) =     -8.36921  eV     3   -->   3 A''            
     e( 16 - 16) =     -8.33962  eV     1   --> A'             
     e( 17 - 17) =     -8.33931  eV     1   --> A'             
     e( 18 - 18) =     -8.33913  eV     1   --> A'             
     e( 19 - 21) =     -8.32158  eV     3   -->   3 A''            
     e( 22 - 22) =     -8.25897  eV     1   --> A'             
     e( 23 - 23) =     -8.25625  eV     1   --> A'             
     e( 24 - 24) =     -8.25593  eV     1   --> A'             
     e( 25 - 27) =     -8.21457  eV     3   -->   3 A''            
     e( 28 - 28) =     -8.16401  eV     1   --> A'             
     e( 29 - 30) =     -8.16384  eV     2   -->   2 A'             
     e( 31 - 31) =     -7.50171  eV     1   --> A'             
     e( 32 - 32) =     -7.49931  eV     1   --> A'             
     e( 33 - 33) =     -7.37363  eV     1   --> A'             
     e( 34 - 34) =     -7.31652  eV     1   --> A'             
     e( 35 - 35) =     -7.18061  eV     1   --> A'             
     e( 36 - 36) =     -7.17868  eV     1   --> A'             
     e( 37 - 38) =     -0.51452  eV     2   -->   2 A'             
     e( 39 - 39) =     -0.30951  eV     1   --> A'             
     e( 40 - 40) =      1.82478  eV     1   --> A'             
     e( 41 - 41) =      2.19751  eV     1   --> A'             
     e( 42 - 42) =      2.21111  eV     1   --> A'             
     e( 43 - 43) =      3.52044  eV     1   --> A'             
     e( 44 - 44) =      3.60522  eV     1   --> A'             
     e( 45 - 45) =      3.62935  eV     1   --> A'             
     e( 46 - 46) =      3.84343  eV     1   --> A'             
     e( 47 - 47) =      4.02788  eV     1   --> A'             
     e( 48 - 48) =      4.11872  eV     1   --> A'             
     e( 49 - 49) =      4.64476  eV     1   --> A''            
     e( 50 - 50) =      4.67058  eV     1   --> A''            
     e( 51 - 51) =      4.74653  eV     1   --> A''            
     e( 52 - 52) =      4.81042  eV     1   --> A''            
     e( 53 - 53) =      4.89213  eV     1   --> A''            
     e( 54 - 54) =      4.92143  eV     1   --> A''            
     e( 55 - 55) =      5.49224  eV     1   --> A'             
     e( 56 - 56) =      5.54317  eV     1   --> A'             
     e( 57 - 57) =      6.18038  eV     1   --> A'             
     e( 58 - 58) =      8.31475  eV     1   --> A'             
     e( 59 - 59) =      8.48805  eV     1   --> A'             
     e( 60 - 60) =      8.69917  eV     1   --> A'             
     e( 61 - 61) =      9.28345  eV     1   --> A'             
     e( 62 - 62) =      9.36016  eV     1   --> A'             
     e( 63 - 63) =      9.40819  eV     1   --> A'             
     e( 64 - 64) =      9.63323  eV     1   --> A'             
     e( 65 - 65) =      9.85137  eV     1   --> A'             
     e( 66 - 66) =      9.98576  eV     1   --> A'             
     e( 67 - 67) =     10.65720  eV     1   --> A''            
     e( 68 - 68) =     10.65881  eV     1   --> A''            
     e( 69 - 69) =     10.66926  eV     1   --> A''            
     e( 70 - 70) =     11.18619  eV     1   --> A'             
     e( 71 - 71) =     11.35306  eV     1   --> A'             
     e( 72 - 72) =     11.42523  eV     1   --> A'             
     e( 73 - 73) =     12.25946  eV     1   --> A''            
     e( 74 - 74) =     12.29269  eV     1   --> A''            
     e( 75 - 75) =     12.35992  eV     1   --> A''            
     e( 76 - 76) =     12.47007  eV     1   --> A'             
     e( 77 - 77) =     12.61689  eV     1   --> A'             
     e( 78 - 78) =     12.96980  eV     1   --> A'             
     e( 79 - 79) =     13.48578  eV     1   --> A'             
     e( 80 - 80) =     13.66085  eV     1   --> A'             
     e( 81 - 81) =     13.79625  eV     1   --> A'             
     e( 82 - 82) =     14.22339  eV     1   --> A'             
     e( 83 - 83) =     14.68747  eV     1   --> A'             
     e( 84 - 84) =     14.82606  eV     1   --> A'             
     e( 85 - 85) =     15.22827  eV     1   --> A''            
     e( 86 - 86) =     15.28719  eV     1   --> A'             
     e( 87 - 87) =     15.41488  eV     1   --> A'             
     e( 88 - 88) =     15.53655  eV     1   --> A''            
     e( 89 - 89) =     15.68082  eV     1   --> A'             
     e( 90 - 90) =     15.68506  eV     1   --> A''            
     e( 91 - 91) =     15.82133  eV     1   --> A'             
     e( 92 - 92) =     16.28259  eV     1   --> A'             
     e( 93 - 93) =     16.31800  eV     1   --> A''            
     e( 94 - 94) =     16.60885  eV     1   --> A'             
     e( 95 - 95) =     16.85714  eV     1   --> A''            
     e( 96 - 96) =     17.03133  eV     1   --> A'             
     e( 97 - 97) =     17.21121  eV     1   --> A''            
     e( 98 - 98) =     17.54524  eV     1   --> A'             
     e( 99 - 99) =     17.62576  eV     1   --> A'             
     e(100 -100) =     17.77871  eV     1   --> A'             
     e(101 -101) =     17.84168  eV     1   --> A'             
     e(102 -102) =     18.13268  eV     1   --> A'             
     e(103 -103) =     18.51463  eV     1   --> A'             
     e(104 -104) =     18.57210  eV     1   --> A'             
     e(105 -105) =     18.79235  eV     1   --> A''            
     e(106 -106) =     18.96949  eV     1   --> A'             
     e(107 -107) =     19.04151  eV     1   --> A''            
     e(108 -108) =     19.58779  eV     1   --> A'             
     e(109 -109) =     19.79538  eV     1   --> A''            
     e(110 -110) =     19.99704  eV     1   --> A'             
     e(111 -111) =     20.00475  eV     1   --> A'             
     e(112 -112) =     20.03744  eV     1   --> A''            
     e(113 -113) =     20.47804  eV     1   --> A'             
     e(114 -114) =     20.52060  eV     1   --> A'             
     e(115 -115) =     20.59555  eV     1   --> A''            
     e(116 -116) =     20.80794  eV     1   --> A'             
     e(117 -117) =     21.25519  eV     1   --> A'             
     e(118 -118) =     21.32390  eV     1   --> A''            
     e(119 -119) =     21.46880  eV     1   --> A'             
     e(120 -120) =     21.48050  eV     1   --> A''            

 **************************************************************************

 **************************************************************************

                    xk=(   0.00000,   0.19854,   0.08009  )

     Band symmetry, C_s (m)     point group:

     e(  1 -  2) =     -8.58025  eV     2   -->   2 A'             
     e(  3 -  3) =     -8.57890  eV     1   --> A'             
     e(  4 -  4) =     -8.49829  eV     1   --> A'             
     e(  5 -  5) =     -8.49454  eV     1   --> A'             
     e(  6 -  6) =     -8.49237  eV     1   --> A'             
     e(  7 -  7) =     -8.46723  eV     1   --> A'             
     e(  8 -  8) =     -8.46371  eV     1   --> A'             
     e(  9 -  9) =     -8.45925  eV     1   --> A'             
     e( 10 - 12) =     -8.42657  eV     3   -->   3 A''            
     e( 13 - 15) =     -8.36672  eV     3   -->   3 A''            
     e( 16 - 16) =     -8.34121  eV     1   --> A'             
     e( 17 - 17) =     -8.34090  eV     1   --> A'             
     e( 18 - 18) =     -8.34076  eV     1   --> A'             
     e( 19 - 21) =     -8.31963  eV     3   -->   3 A''            
     e( 22 - 22) =     -8.25999  eV     1   --> A'             
     e( 23 - 23) =     -8.25766  eV     1   --> A'             
     e( 24 - 24) =     -8.25733  eV     1   --> A'             
     e( 25 - 27) =     -8.21493  eV     3   -->   3 A''            
     e( 28 - 30) =     -8.15752  eV     3   -->   3 A'             
     e( 31 - 31) =     -7.43990  eV     1   --> A'             
     e( 32 - 32) =     -7.43673  eV     1   --> A'             
     e( 33 - 33) =     -7.31313  eV     1   --> A'             
     e( 34 - 34) =     -7.26005  eV     1   --> A'             
     e( 35 - 35) =     -7.12600  eV     1   --> A'             
     e( 36 - 36) =     -7.12337  eV     1   --> A'             
     e( 37 - 37) =     -0.48997  eV     1   --> A'             
     e( 38 - 38) =     -0.48979  eV     1   --> A'             
     e( 39 - 39) =     -0.30386  eV     1   --> A'             
     e( 40 - 40) =      1.82653  eV     1   --> A'             
     e( 41 - 41) =      2.09768  eV     1   --> A'             
     e( 42 - 42) =      2.11845  eV     1   --> A'             
     e( 43 - 43) =      3.28917  eV     1   --> A'             
     e( 44 - 44) =      3.37706  eV     1   --> A'             
     e( 45 - 45) =      3.40730  eV     1   --> A'             
     e( 46 - 46) =      3.64266  eV     1   --> A'             
     e( 47 - 47) =      3.90754  eV     1   --> A'             
     e( 48 - 48) =      3.99703  eV     1   --> A'             
     e( 49 - 49) =      4.56758  eV     1   --> A''            
     e( 50 - 50) =      4.59173  eV     1   --> A''            
     e( 51 - 51) =      4.67414  eV     1   --> A''            
     e( 52 - 52) =      4.73918  eV     1   --> A''            
     e( 53 - 53) =      4.82835  eV     1   --> A''            
     e( 54 - 54) =      4.85606  eV     1   --> A''            
     e( 55 - 55) =      5.48345  eV     1   --> A'             
     e( 56 - 56) =      5.55273  eV     1   --> A'             
     e( 57 - 57) =      6.11388  eV     1   --> A'             
     e( 58 - 58) =      8.39760  eV     1   --> A'             
     e( 59 - 59) =      8.44226  eV     1   --> A'             
     e( 60 - 60) =      8.72139  eV     1   --> A'             
     e( 61 - 61) =      9.26297  eV     1   --> A'             
     e( 62 - 62) =      9.34670  eV     1   --> A'             
     e( 63 - 63) =      9.35646  eV     1   --> A'             
     e( 64 - 64) =      9.65419  eV     1   --> A'             
     e( 65 - 65) =      9.90097  eV     1   --> A'             
     e( 66 - 66) =     10.00972  eV     1   --> A'             
     e( 67 - 67) =     10.71020  eV     1   --> A''            
     e( 68 - 68) =     10.72815  eV     1   --> A''            
     e( 69 - 69) =     10.72932  eV     1   --> A''            
     e( 70 - 70) =     11.26587  eV     1   --> A'             
     e( 71 - 71) =     11.43899  eV     1   --> A'             
     e( 72 - 72) =     11.50671  eV     1   --> A'             
     e( 73 - 73) =     12.41058  eV     1   --> A''            
     e( 74 - 74) =     12.42980  eV     1   --> A''            
     e( 75 - 75) =     12.45424  eV     1   --> A'             
     e( 76 - 76) =     12.49439  eV     1   --> A''            
     e( 77 - 77) =     12.62114  eV     1   --> A'             
     e( 78 - 78) =     13.00962  eV     1   --> A'             
     e( 79 - 79) =     13.38293  eV     1   --> A'             
     e( 80 - 80) =     13.61986  eV     1   --> A'             
     e( 81 - 81) =     13.71554  eV     1   --> A'             
     e( 82 - 82) =     14.05559  eV     1   --> A'             
     e( 83 - 83) =     14.55793  eV     1   --> A'             
     e( 84 - 84) =     14.64112  eV     1   --> A'             
     e( 85 - 85) =     15.13876  eV     1   --> A'             
     e( 86 - 86) =     15.25036  eV     1   --> A''            
     e( 87 - 87) =     15.49980  eV     1   --> A'             
     e( 88 - 88) =     15.56799  eV     1   --> A''            
     e( 89 - 89) =     15.67008  eV     1   --> A''            
     e( 90 - 90) =     15.67637  eV     1   --> A'             
     e( 91 - 91) =     15.83392  eV     1   --> A'             
     e( 92 - 92) =     16.32741  eV     1   --> A''            
     e( 93 - 93) =     16.45774  eV     1   --> A'             
     e( 94 - 94) =     16.76469  eV     1   --> A'             
     e( 95 - 95) =     16.85577  eV     1   --> A''            
     e( 96 - 96) =     17.09373  eV     1   --> A'             
     e( 97 - 97) =     17.23727  eV     1   --> A''            
     e( 98 - 98) =     17.71537  eV     1   --> A'             
     e( 99 - 99) =     17.74325  eV     1   --> A'             
     e(100 -100) =     17.91931  eV     1   --> A'             
     e(101 -101) =     18.00636  eV     1   --> A'             
     e(102 -102) =     18.06783  eV     1   --> A'             
     e(103 -103) =     18.74678  eV     1   --> A'             
     e(104 -104) =     18.87467  eV     1   --> A'             
     e(105 -105) =     19.00812  eV     1   --> A''            
     e(106 -106) =     19.07557  eV     1   --> A'             
     e(107 -107) =     19.16838  eV     1   --> A''            
     e(108 -108) =     19.48155  eV     1   --> A'             
     e(109 -109) =     19.92443  eV     1   --> A''            
     e(110 -110) =     20.08214  eV     1   --> A'             
     e(111 -111) =     20.17002  eV     1   --> A''            
     e(112 -112) =     20.23206  eV     1   --> A'             
     e(113 -113) =     20.54604  eV     1   --> A'             
     e(114 -114) =     20.68502  eV     1   --> A''            
     e(115 -115) =     20.77615  eV     1   --> A'             
     e(116 -116) =     20.97563  eV     1   --> A'             
     e(117 -117) =     21.38055  eV     1   --> A''            
     e(118 -118) =     21.47799  eV     1   --> A'             
     e(119 -119) =     21.68152  eV     1   --> A''            
     e(120 -120) =     21.79810  eV     1   --> A'             

 **************************************************************************

 **************************************************************************

                    xk=(   0.00000,   0.22060,   0.08009  )

     Band symmetry, C_s (m)     point group:

     e(  1 -  1) =     -8.58171  eV     1   --> A'             
     e(  2 -  2) =     -8.58160  eV     1   --> A'             
     e(  3 -  3) =     -8.57999  eV     1   --> A'             
     e(  4 -  4) =     -8.50881  eV     1   --> A'             
     e(  5 -  5) =     -8.50439  eV     1   --> A'             
     e(  6 -  6) =     -8.50327  eV     1   --> A'             
     e(  7 -  7) =     -8.47876  eV     1   --> A'             
     e(  8 -  8) =     -8.47612  eV     1   --> A'             
     e(  9 -  9) =     -8.47086  eV     1   --> A'             
     e( 10 - 12) =     -8.42685  eV     3   -->   3 A''            
     e( 13 - 15) =     -8.36406  eV     3   -->   3 A''            
     e( 16 - 16) =     -8.34279  eV     1   --> A'             
     e( 17 - 17) =     -8.34249  eV     1   --> A'             
     e( 18 - 18) =     -8.34238  eV     1   --> A'             
     e( 19 - 21) =     -8.31752  eV     3   -->   3 A''            
     e( 22 - 22) =     -8.26098  eV     1   --> A'             
     e( 23 - 23) =     -8.25898  eV     1   --> A'             
     e( 24 - 24) =     -8.25865  eV     1   --> A'             
     e( 25 - 27) =     -8.21532  eV     3   -->   3 A''            
     e( 28 - 30) =     -8.15149  eV     3   -->   3 A'             
     e( 31 - 31) =     -7.37340  eV     1   --> A'             
     e( 32 - 32) =     -7.36937  eV     1   --> A'             
     e( 33 - 33) =     -7.24799  eV     1   --> A'             
     e( 34 - 34) =     -7.19881  eV     1   --> A'             
     e( 35 - 35) =     -7.06694  eV     1   --> A'             
     e( 36 - 36) =     -7.06349  eV     1   --> A'             
     e( 37 - 37) =     -0.46745  eV     1   --> A'             
     e( 38 - 38) =     -0.46699  eV     1   --> A'             
     e( 39 - 39) =     -0.30313  eV     1   --> A'             
     e( 40 - 40) =      1.81076  eV     1   --> A'             
     e( 41 - 41) =      1.97271  eV     1   --> A'             
     e( 42 - 42) =      2.00155  eV     1   --> A'             
     e( 43 - 43) =      3.06869  eV     1   --> A'             
     e( 44 - 44) =      3.17282  eV     1   --> A'             
     e( 45 - 45) =      3.19319  eV     1   --> A'             
     e( 46 - 46) =      3.45288  eV     1   --> A'             
     e( 47 - 47) =      3.81494  eV     1   --> A'             
     e( 48 - 48) =      3.89901  eV     1   --> A'             
     e( 49 - 49) =      4.48836  eV     1   --> A''            
     e( 50 - 50) =      4.51088  eV     1   --> A''            
     e( 51 - 51) =      4.59899  eV     1   --> A''            
     e( 52 - 52) =      4.66591  eV     1   --> A''            
     e( 53 - 53) =      4.76181  eV     1   --> A''            
     e( 54 - 54) =      4.78789  eV     1   --> A''            
     e( 55 - 55) =      5.46635  eV     1   --> A'             
     e( 56 - 56) =      5.55615  eV     1   --> A'             
     e( 57 - 57) =      6.03588  eV     1   --> A'             
     e( 58 - 58) =      8.36190  eV     1   --> A'             
     e( 59 - 59) =      8.43826  eV     1   --> A'             
     e( 60 - 60) =      8.69680  eV     1   --> A'             
     e( 61 - 61) =      9.21184  eV     1   --> A'             
     e( 62 - 62) =      9.28578  eV     1   --> A'             
     e( 63 - 63) =      9.30763  eV     1   --> A'             
     e( 64 - 64) =      9.66429  eV     1   --> A'             
     e( 65 - 65) =      9.92725  eV     1   --> A'             
     e( 66 - 66) =     10.03001  eV     1   --> A'             
     e( 67 - 67) =     10.75636  eV     1   --> A''            
     e( 68 - 68) =     10.78296  eV     1   --> A''            
     e( 69 - 69) =     10.79603  eV     1   --> A''            
     e( 70 - 70) =     11.39905  eV     1   --> A'             
     e( 71 - 71) =     11.57496  eV     1   --> A'             
     e( 72 - 72) =     11.64104  eV     1   --> A'             
     e( 73 - 73) =     12.43630  eV     1   --> A'             
     e( 74 - 74) =     12.56775  eV     1   --> A''            
     e( 75 - 75) =     12.57204  eV     1   --> A''            
     e( 76 - 76) =     12.62407  eV     1   --> A'             
     e( 77 - 77) =     12.62862  eV     1   --> A''            
     e( 78 - 78) =     12.98684  eV     1   --> A'             
     e( 79 - 79) =     13.37185  eV     1   --> A'             
     e( 80 - 80) =     13.58423  eV     1   --> A'             
     e( 81 - 81) =     13.66463  eV     1   --> A'             
     e( 82 - 82) =     13.93014  eV     1   --> A'             
     e( 83 - 83) =     14.45744  eV     1   --> A'             
     e( 84 - 84) =     14.45813  eV     1   --> A'             
     e( 85 - 85) =     14.95706  eV     1   --> A'             
     e( 86 - 86) =     15.30215  eV     1   --> A''            
     e( 87 - 87) =     15.58705  eV     1   --> A'             
     e( 88 - 88) =     15.62814  eV     1   --> A''            
     e( 89 - 89) =     15.67655  eV     1   --> A''            
     e( 90 - 90) =     15.69515  eV     1   --> A'             
     e( 91 - 91) =     15.80771  eV     1   --> A'             
     e( 92 - 92) =     16.35462  eV     1   --> A''            
     e( 93 - 93) =     16.65365  eV     1   --> A'             
     e( 94 - 94) =     16.84977  eV     1   --> A''            
     e( 95 - 95) =     16.93172  eV     1   --> A'             
     e( 96 - 96) =     17.06460  eV     1   --> A'             
     e( 97 - 97) =     17.26298  eV     1   --> A''            
     e( 98 - 98) =     17.75681  eV     1   --> A'             
     e( 99 - 99) =     17.86074  eV     1   --> A'             
     e(100 -100) =     18.01704  eV     1   --> A'             
     e(101 -101) =     18.09233  eV     1   --> A'             
     e(102 -102) =     18.30833  eV     1   --> A'             
     e(103 -103) =     18.90306  eV     1   --> A'             
     e(104 -104) =     19.22063  eV     1   --> A'             
     e(105 -105) =     19.24403  eV     1   --> A''            
     e(106 -106) =     19.24648  eV     1   --> A'             
     e(107 -107) =     19.30381  eV     1   --> A''            
     e(108 -108) =     19.49056  eV     1   --> A'             
     e(109 -109) =     19.89333  eV     1   --> A'             
     e(110 -110) =     19.98144  eV     1   --> A''            
     e(111 -111) =     20.34295  eV     1   --> A''            
     e(112 -112) =     20.53913  eV     1   --> A'             
     e(113 -113) =     20.76951  eV     1   --> A''            
     e(114 -114) =     20.84835  eV     1   --> A'             
     e(115 -115) =     20.87040  eV     1   --> A'             
     e(116 -116) =     21.28143  eV     1   --> A'             
     e(117 -117) =     21.51826  eV     1   --> A''            
     e(118 -118) =     21.70216  eV     1   --> A'             
     e(119 -119) =     21.82547  eV     1   --> A'             
     e(120 -120) =     21.86501  eV     1   --> A''            

 **************************************************************************

 **************************************************************************

                    xk=(   0.00000,   0.24266,   0.08009  )

     Band symmetry, C_s (m)     point group:

[...]
     e(112 -114) =     23.00407  eV     3   --> E*             
     e(115 -115) =     23.33622  eV     1   -->   ?
     e(116 -117) =     23.33632  eV     2   -->   ?
     e(118 -119) =     24.01659  eV     2   -->   ?
     e(120 -120) =     24.01684  eV     1   -->   ?

 **************************************************************************

 **************************************************************************

                    xk=(   0.34388,   0.59561,   0.04005  )

     Band symmetry, C_3 (3)     point group:

     e(  1 -  1) =     -8.62386  eV     1   --> E*             
     e(  2 -  6) =     -8.62376  eV     5   -->   2 A              
     e(  2 -  6) =     -8.62376  eV     5   -->   2 E              
     e(  2 -  6) =     -8.62376  eV     5   --> E*             
     e(  7 -  9) =     -8.53816  eV     3   --> A              
     e(  7 -  9) =     -8.53816  eV     3   --> E              
     e(  7 -  9) =     -8.53816  eV     3   --> E*             
     e( 10 - 15) =     -8.40090  eV     6   -->   2 A              
     e( 10 - 15) =     -8.40090  eV     6   -->   2 E              
     e( 10 - 15) =     -8.40090  eV     6   -->   2 E*             
     e( 16 - 21) =     -8.31108  eV     6   -->   2 A              
     e( 16 - 21) =     -8.31108  eV     6   -->   2 E              
     e( 16 - 21) =     -8.31108  eV     6   -->   2 E*             
     e( 22 - 24) =     -8.24260  eV     3   --> A              
     e( 22 - 24) =     -8.24260  eV     3   --> E              
     e( 22 - 24) =     -8.24260  eV     3   --> E*             
     e( 25 - 27) =     -8.24245  eV     3   --> A              
     e( 25 - 27) =     -8.24245  eV     3   --> E              
     e( 25 - 27) =     -8.24245  eV     3   --> E*             
     e( 28 - 30) =     -8.09956  eV     3   --> A              
     e( 28 - 30) =     -8.09956  eV     3   --> E              
     e( 28 - 30) =     -8.09956  eV     3   --> E*             
     e( 31 - 31) =     -6.00945  eV     1   -->   ?
     e( 32 - 32) =     -6.00934  eV     1   -->   ?
     e( 33 - 35) =     -6.00923  eV     3   -->   ?
     e( 36 - 36) =     -6.00899  eV     1   -->   ?
     e( 37 - 39) =     -1.02187  eV     3   --> A              
     e( 37 - 39) =     -1.02187  eV     3   --> E              
     e( 37 - 39) =     -1.02187  eV     3   --> E*             
     e( 40 - 42) =      0.00418  eV     3   --> A              
     e( 40 - 42) =      0.00418  eV     3   --> E              
     e( 40 - 42) =      0.00418  eV     3   --> E*             
     e( 43 - 43) =      1.78437  eV     1   --> A              
     e( 44 - 44) =      1.78465  eV     1   --> E              
     e( 45 - 45) =      1.78482  eV     1   --> E*             
     e( 46 - 46) =      1.97772  eV     1   --> A              
     e( 47 - 47) =      1.97793  eV     1   --> E              
     e( 48 - 48) =      1.97812  eV     1   --> E*             
     e( 49 - 50) =      3.61352  eV     2   -->   ?
     e( 51 - 51) =      3.61368  eV     1   -->   ?
     e( 52 - 54) =      3.80283  eV     3   --> A              
     e( 52 - 54) =      3.80283  eV     3   --> E              
     e( 52 - 54) =      3.80283  eV     3   --> E*             
     e( 55 - 57) =      4.21110  eV     3   --> A              
     e( 55 - 57) =      4.21110  eV     3   --> E              
     e( 55 - 57) =      4.21110  eV     3   --> E*             
     e( 58 - 60) =      8.52391  eV     3   --> A              
     e( 58 - 60) =      8.52391  eV     3   --> E              
     e( 58 - 60) =      8.52391  eV     3   --> E*             
     e( 61 - 62) =      8.89865  eV     2   -->   ?
     e( 63 - 63) =      8.89881  eV     1   -->   ?
     e( 64 - 66) =      9.24809  eV     3   --> A              
     e( 64 - 66) =      9.24809  eV     3   --> E              
     e( 64 - 66) =      9.24809  eV     3   --> E*             
     e( 67 - 69) =     12.15712  eV     3   --> A              
     e( 67 - 69) =     12.15712  eV     3   --> E              
     e( 67 - 69) =     12.15712  eV     3   --> E*             
     e( 70 - 72) =     12.47658  eV     3   --> A              
     e( 70 - 72) =     12.47658  eV     3   --> E              
     e( 70 - 72) =     12.47658  eV     3   --> E*             
     e( 73 - 75) =     13.01654  eV     3   --> A              
     e( 73 - 75) =     13.01654  eV     3   --> E              
     e( 73 - 75) =     13.01654  eV     3   --> E*             
     e( 76 - 78) =     13.87733  eV     3   --> A              
     e( 76 - 78) =     13.87733  eV     3   --> E              
     e( 76 - 78) =     13.87733  eV     3   --> E*             
     e( 79 - 79) =     14.12620  eV     1   -->   ?
     e( 80 - 81) =     14.12633  eV     2   -->   ?
     e( 82 - 84) =     14.61344  eV     3   --> A              
     e( 82 - 84) =     14.61344  eV     3   --> E              
     e( 82 - 84) =     14.61344  eV     3   --> E*             
     e( 85 - 85) =     15.19501  eV     1   -->   ?
     e( 86 - 86) =     15.19513  eV     1   -->   ?
     e( 87 - 87) =     15.19531  eV     1   -->   ?
     e( 88 - 88) =     16.11844  eV     1   -->   ?
     e( 89 - 89) =     16.11856  eV     1   -->   ?
     e( 90 - 90) =     16.11868  eV     1   -->   ?
     e( 91 - 91) =     16.30238  eV     1   -->   ?
     e( 92 - 92) =     16.30248  eV     1   -->   ?
     e( 93 - 93) =     16.30259  eV     1   -->   ?
     e( 94 - 96) =     17.22432  eV     3   --> A              
     e( 94 - 96) =     17.22432  eV     3   --> E              
     e( 94 - 96) =     17.22432  eV     3   --> E*             
     e( 97 - 99) =     18.29700  eV     3   --> A              
     e( 97 - 99) =     18.29700  eV     3   --> E              
     e( 97 - 99) =     18.29700  eV     3   --> E*             
     e(100 -102) =     20.15589  eV     3   --> A              
     e(100 -102) =     20.15589  eV     3   --> E              
     e(100 -102) =     20.15589  eV     3   --> E*             
     e(103 -103) =     20.91537  eV     1   -->   ?
     e(104 -105) =     20.91549  eV     2   -->   ?
     e(106 -107) =     21.23905  eV     2   -->   ?
     e(108 -108) =     21.23918  eV     1   -->   ?
     e(109 -111) =     21.76388  eV     3   --> A              
     e(109 -111) =     21.76388  eV     3   --> E              
     e(109 -111) =     21.76388  eV     3   --> E*             
     e(112 -114) =     22.90574  eV     3   --> A              
     e(112 -114) =     22.90574  eV     3   --> E              
     e(112 -114) =     22.90574  eV     3   --> E*             
     e(115 -117) =     23.52088  eV     3   --> A              
     e(115 -117) =     23.52088  eV     3   --> E              
     e(115 -117) =     23.52088  eV     3   --> E*             
     e(118 -119) =     24.11419  eV     2   -->   ?
     e(120 -120) =     24.11442  eV     1   -->   ?

 **************************************************************************

 **************************************************************************

                    xk=(   0.34388,   0.59561,   0.02002  )

     Band symmetry, C_3 (3)     point group:

     e(  1 -  1) =     -8.62387  eV     1   --> E*             
     e(  2 -  6) =     -8.62376  eV     5   -->   2 A              
     e(  2 -  6) =     -8.62376  eV     5   -->   2 E              
     e(  2 -  6) =     -8.62376  eV     5   --> E*             
     e(  7 -  9) =     -8.53816  eV     3   --> A              
     e(  7 -  9) =     -8.53816  eV     3   --> E              
     e(  7 -  9) =     -8.53816  eV     3   --> E*             
     e( 10 - 15) =     -8.40090  eV     6   -->   2 A              
     e( 10 - 15) =     -8.40090  eV     6   -->   2 E              
     e( 10 - 15) =     -8.40090  eV     6   -->   2 E*             
     e( 16 - 21) =     -8.31108  eV     6   -->   2 A              
     e( 16 - 21) =     -8.31108  eV     6   -->   2 E              
     e( 16 - 21) =     -8.31108  eV     6   -->   2 E*             
     e( 22 - 24) =     -8.24260  eV     3   --> A              
     e( 22 - 24) =     -8.24260  eV     3   --> E              
     e( 22 - 24) =     -8.24260  eV     3   --> E*             
     e( 25 - 27) =     -8.24245  eV     3   --> A              
     e( 25 - 27) =     -8.24245  eV     3   --> E              
     e( 25 - 27) =     -8.24245  eV     3   --> E*             
     e( 28 - 30) =     -8.09956  eV     3   --> A              
     e( 28 - 30) =     -8.09956  eV     3   --> E              
     e( 28 - 30) =     -8.09956  eV     3   --> E*             
     e( 31 - 31) =     -6.00945  eV     1   -->   ?
     e( 32 - 32) =     -6.00934  eV     1   -->   ?
     e( 33 - 35) =     -6.00923  eV     3   -->   ?
     e( 36 - 36) =     -6.00899  eV     1   -->   ?
     e( 37 - 39) =     -1.02187  eV     3   --> A              
     e( 37 - 39) =     -1.02187  eV     3   --> E              
     e( 37 - 39) =     -1.02187  eV     3   --> E*             
     e( 40 - 42) =      0.00418  eV     3   --> A              
     e( 40 - 42) =      0.00418  eV     3   --> E              
     e( 40 - 42) =      0.00418  eV     3   --> E*             
     e( 43 - 43) =      1.78424  eV     1   --> A              
     e( 44 - 44) =      1.78451  eV     1   --> E              
     e( 45 - 45) =      1.78469  eV     1   --> E*             
     e( 46 - 46) =      1.97792  eV     1   --> A              
     e( 47 - 47) =      1.97813  eV     1   --> E              
     e( 48 - 48) =      1.97831  eV     1   --> E*             
     e( 49 - 50) =      3.61018  eV     2   -->   ?
     e( 51 - 51) =      3.61033  eV     1   -->   ?
     e( 52 - 54) =      3.80792  eV     3   --> A              
     e( 52 - 54) =      3.80792  eV     3   --> E              
     e( 52 - 54) =      3.80792  eV     3   --> E*             
     e( 55 - 57) =      4.20917  eV     3   --> A              
     e( 55 - 57) =      4.20917  eV     3   --> E              
     e( 55 - 57) =      4.20917  eV     3   --> E*             
     e( 58 - 58) =      8.55887  eV     1   -->   ?
     e( 59 - 60) =      8.55898  eV     2   -->   ?
     e( 61 - 62) =      8.82166  eV     2   -->   ?
     e( 63 - 63) =      8.82186  eV     1   -->   ?
     e( 64 - 66) =      9.29546  eV     3   --> A              
     e( 64 - 66) =      9.29546  eV     3   --> E              
     e( 64 - 66) =      9.29546  eV     3   --> E*             
     e( 67 - 69) =     12.10582  eV     3   --> A              
     e( 67 - 69) =     12.10582  eV     3   --> E              
     e( 67 - 69) =     12.10582  eV     3   --> E*             
     e( 70 - 72) =     12.52006  eV     3   --> A              
     e( 70 - 72) =     12.52006  eV     3   --> E              
     e( 70 - 72) =     12.52006  eV     3   --> E*             
     e( 73 - 75) =     13.02192  eV     3   --> A              
     e( 73 - 75) =     13.02192  eV     3   --> E              
     e( 73 - 75) =     13.02192  eV     3   --> E*             
     e( 76 - 78) =     13.93837  eV     3   --> A              
     e( 76 - 78) =     13.93837  eV     3   --> E              
     e( 76 - 78) =     13.93837  eV     3   --> E*             
     e( 79 - 79) =     14.07620  eV     1   -->   ?
     e( 80 - 81) =     14.07630  eV     2   -->   ?
     e( 82 - 83) =     14.60555  eV     2   -->   ?
     e( 84 - 84) =     14.60570  eV     1   -->   ?
     e( 85 - 85) =     15.17244  eV     1   -->   ?
     e( 86 - 86) =     15.17256  eV     1   -->   ?
     e( 87 - 87) =     15.17274  eV     1   -->   ?
     e( 88 - 88) =     16.14391  eV     1   -->   ?
     e( 89 - 89) =     16.14403  eV     1   -->   ?
     e( 90 - 90) =     16.14414  eV     1   -->   ?
     e( 91 - 91) =     16.23453  eV     1   -->   ?
     e( 92 - 92) =     16.23464  eV     1   -->   ?
     e( 93 - 93) =     16.23476  eV     1   -->   ?
     e( 94 - 94) =     17.44248  eV     1   -->   ?
     e( 95 - 96) =     17.44259  eV     2   -->   ?
     e( 97 - 99) =     18.07427  eV     3   --> A              
     e( 97 - 99) =     18.07427  eV     3   --> E              
     e( 97 - 99) =     18.07427  eV     3   --> E*             
     e(100 -100) =     20.25419  eV     1   -->   ?
     e(101 -102) =     20.25429  eV     2   -->   ?
     e(103 -105) =     21.01121  eV     3   --> A              
     e(103 -105) =     21.01121  eV     3   --> E              
     e(103 -105) =     21.01121  eV     3   --> E*             
     e(106 -107) =     21.21616  eV     2   -->   ?
     e(108 -108) =     21.21632  eV     1   -->   ?
     e(109 -109) =     21.61471  eV     1   -->   ?
     e(110 -111) =     21.61482  eV     2   -->   ?
     e(112 -114) =     22.84364  eV     3   --> A              
     e(112 -114) =     22.84364  eV     3   --> E              
     e(112 -114) =     22.84364  eV     3   --> E*             
     e(115 -115) =     23.68163  eV     1   -->   ?
     e(116 -117) =     23.68174  eV     2   -->   ?
     e(118 -119) =     24.25071  eV     2   -->   ?
     e(120 -120) =     24.25095  eV     1   -->   ?

 **************************************************************************

 **************************************************************************

                    xk=(   0.34388,   0.59561,  -0.00000  )

     Band symmetry, C_3 (3)     point group:

     e(  1 -  1) =     -8.62387  eV     1   --> E*             
     e(  2 -  6) =     -8.62376  eV     5   -->   2 A              
     e(  2 -  6) =     -8.62376  eV     5   -->   2 E              
     e(  2 -  6) =     -8.62376  eV     5   --> E*             
     e(  7 -  9) =     -8.53816  eV     3   --> A              
     e(  7 -  9) =     -8.53816  eV     3   --> E              
     e(  7 -  9) =     -8.53816  eV     3   --> E*             
     e( 10 - 15) =     -8.40090  eV     6   -->   2 A              
     e( 10 - 15) =     -8.40090  eV     6   -->   2 E              
     e( 10 - 15) =     -8.40090  eV     6   -->   2 E*             
     e( 16 - 21) =     -8.31107  eV     6   -->   2 A              
     e( 16 - 21) =     -8.31107  eV     6   -->   2 E              
     e( 16 - 21) =     -8.31107  eV     6   -->   2 E*             
     e( 22 - 24) =     -8.24260  eV     3   --> A              
     e( 22 - 24) =     -8.24260  eV     3   --> E              
     e( 22 - 24) =     -8.24260  eV     3   --> E*             
     e( 25 - 27) =     -8.24245  eV     3   --> A              
     e( 25 - 27) =     -8.24245  eV     3   --> E              
     e( 25 - 27) =     -8.24245  eV     3   --> E*             
     e( 28 - 30) =     -8.09956  eV     3   --> A              
     e( 28 - 30) =     -8.09956  eV     3   --> E              
     e( 28 - 30) =     -8.09956  eV     3   --> E*             
     e( 31 - 31) =     -6.00945  eV     1   -->   ?
     e( 32 - 32) =     -6.00934  eV     1   -->   ?
     e( 33 - 35) =     -6.00923  eV     3   -->   ?
     e( 36 - 36) =     -6.00899  eV     1   -->   ?
     e( 37 - 39) =     -1.02187  eV     3   --> A              
     e( 37 - 39) =     -1.02187  eV     3   --> E              
     e( 37 - 39) =     -1.02187  eV     3   --> E*             
     e( 40 - 42) =      0.00418  eV     3   --> A              
     e( 40 - 42) =      0.00418  eV     3   --> E              
     e( 40 - 42) =      0.00418  eV     3   --> E*             
     e( 43 - 43) =      1.78418  eV     1   --> A              
     e( 44 - 44) =      1.78446  eV     1   --> E              
     e( 45 - 45) =      1.78463  eV     1   --> E*             
     e( 46 - 46) =      1.97800  eV     1   --> A              
     e( 47 - 47) =      1.97821  eV     1   --> E              
     e( 48 - 48) =      1.97839  eV     1   --> E*             
     e( 49 - 50) =      3.60883  eV     2   -->   ?
     e( 51 - 51) =      3.60899  eV     1   -->   ?
     e( 52 - 54) =      3.81000  eV     3   --> A              
     e( 52 - 54) =      3.81000  eV     3   --> E              
     e( 52 - 54) =      3.81000  eV     3   --> E*             
     e( 55 - 57) =      4.20836  eV     3   --> A              
     e( 55 - 57) =      4.20836  eV     3   --> E              
     e( 55 - 57) =      4.20836  eV     3   --> E*             
     e( 58 - 58) =      8.57861  eV     1   -->   ?
     e( 59 - 60) =      8.57875  eV     2   -->   ?
     e( 61 - 62) =      8.78755  eV     2   -->   ?
     e( 63 - 63) =      8.78779  eV     1   -->   ?
     e( 64 - 66) =      9.31204  eV     3   --> A              
     e( 64 - 66) =      9.31204  eV     3   --> E              
     e( 64 - 66) =      9.31204  eV     3   --> E*             
     e( 67 - 69) =     12.08759  eV     3   --> A              
     e( 67 - 69) =     12.08759  eV     3   --> E              
     e( 67 - 69) =     12.08759  eV     3   --> E*             
     e( 70 - 72) =     12.53490  eV     3   --> A              
     e( 70 - 72) =     12.53490  eV     3   --> E              
     e( 70 - 72) =     12.53490  eV     3   --> E*             
     e( 73 - 75) =     13.02421  eV     3   --> A              
     e( 73 - 75) =     13.02421  eV     3   --> E              
     e( 73 - 75) =     13.02421  eV     3   --> E*             
     e( 76 - 76) =     13.99986  eV     1   -->   ?
     e( 77 - 77) =     14.00002  eV     1   -->   ?
     e( 78 - 78) =     14.00014  eV     1   -->   ?
     e( 79 - 81) =     14.01935  eV     3   --> A              
     e( 79 - 81) =     14.01935  eV     3   --> E              
     e( 79 - 81) =     14.01935  eV     3   --> E*             
     e( 82 - 83) =     14.60217  eV     2   -->   ?
     e( 84 - 84) =     14.60232  eV     1   -->   ?
     e( 85 - 85) =     15.16330  eV     1   -->   ?
     e( 86 - 86) =     15.16341  eV     1   -->   ?
     e( 87 - 87) =     15.16360  eV     1   -->   ?
     e( 88 - 88) =     16.17745  eV     1   -->   ?
     e( 89 - 90) =     16.17756  eV     2   -->   ?
     e( 91 - 91) =     16.18635  eV     1   -->   ?
     e( 92 - 92) =     16.18651  eV     1   -->   ?
     e( 93 - 93) =     16.18668  eV     1   -->   ?
     e( 94 - 94) =     17.58565  eV     1   -->   ?
     e( 95 - 95) =     17.58581  eV     1   -->   ?
     e( 96 - 96) =     17.58592  eV     1   -->   ?
     e( 97 - 99) =     17.92846  eV     3   --> A              
     e( 97 - 99) =     17.92846  eV     3   --> E              
     e( 97 - 99) =     17.92846  eV     3   --> E*             
     e(100 -100) =     20.29095  eV     1   -->   ?
     e(101 -102) =     20.29106  eV     2   -->   ?
     e(103 -105) =     21.11672  eV     3   --> A              
     e(103 -105) =     21.11672  eV     3   --> E              
     e(103 -105) =     21.11672  eV     3   --> E*             
     e(106 -108) =     21.15208  eV     3   --> A              
     e(106 -108) =     21.15208  eV     3   --> E              
     e(106 -108) =     21.15208  eV     3   --> E*             
     e(109 -109) =     21.54468  eV     1   -->   ?
     e(110 -111) =     21.54479  eV     2   -->   ?
     e(112 -114) =     22.82233  eV     3   --> A              
     e(112 -114) =     22.82233  eV     3   --> E              
     e(112 -114) =     22.82233  eV     3   --> E*             
     e(115 -115) =     23.74977  eV     1   -->   ?
     e(116 -116) =     23.74989  eV     1   -->   ?
     e(117 -117) =     23.74999  eV     1   -->   ?
     e(118 -118) =     24.40977  eV     1   -->   ?
     e(119 -119) =     24.40994  eV     1   -->   ?
     e(120 -120) =     24.41005  eV     1   -->   ?

 **************************************************************************
 
     BANDS        :  4m 7.11s CPU     4m23.41s WALL

 
   This run was terminated on:   3: 4: 6  23Sep2021            

=------------------------------------------------------------------------------=
   JOB DONE.
=------------------------------------------------------------------------------=
