
     Program BANDS v.6.1 (svn rev. 13369) starts on 29Sep2021 at 13:42: 1 

     This program is part of the open-source Quantum ESPRESSO suite
     for quantum simulation of materials; please cite
         "P. Giannozzi et al., J. Phys.:Condens. Matter 21 395502 (2009);
          URL http://www.quantum-espresso.org", 
     in publications or presentations arising from this work. More details at
     http://www.quantum-espresso.org/quote

     Parallel version (MPI), running on    48 processors
     R & G space division:  proc/nbgrp/npool/nimage =      48

     Reading data from directory:
     /share/inl/marcel/TB/InTegamma_outdir/InTegamma.save

   Info: using nr1, nr2, nr3 values from input

   Info: using nr1, nr2, nr3 values from input

     IMPORTANT: XC functional enforced from input :
     Exchange-correlation      = SLA+PW+PSX+PSC ( 1  4 10  8 0 0)
     Any further DFT definition will be discarded
     Please, verify this is what you really want

 
     Parallelization info
     --------------------
     sticks:   dense  smooth     PW     G-vecs:    dense   smooth      PW
     Min          56      56     15                14678    14678    2069
     Max          57      57     16                14731    14731    2108
     Sum        2725    2725    745               706155   706155  100137
 
     high-symmetry point:  0.0000 0.0000 0.0763   x coordinate   0.0000
     high-symmetry point: -0.0000 0.5359 0.0763   x coordinate   0.5359
     high-symmetry point:  0.3094 0.5359 0.0763   x coordinate   0.8453
     high-symmetry point:  0.0000 0.0000 0.0763   x coordinate   1.4641
     high-symmetry point:  0.0000 0.0000 0.0000   x coordinate   1.5404
     high-symmetry point: -0.0000 0.5359-0.0000   x coordinate   2.0763
     high-symmetry point:  0.3094 0.5359-0.0000   x coordinate   2.3857
     high-symmetry point:  0.0000 0.0000 0.0000   x coordinate   3.0045
     high-symmetry point: -0.0000 0.5359 0.0763   x coordinate   3.0045
     high-symmetry point: -0.0000 0.5359-0.0000   x coordinate   3.0807
     high-symmetry point:  0.3094 0.5359 0.0763   x coordinate   3.0807
     high-symmetry point:  0.3094 0.5359-0.0000   x coordinate   3.1570

     Plottable bands (eV) written to file InTegamma.bands.dat.gnu
     Bands written to file InTegamma.bands.dat

 **************************************************************************

                    xk=(   0.00000,   0.00000,   0.07625  )

     point group C_3v (3m)  
     there are  3 classes
     the character table:

       E     2C3   3s_v 
A_1    1.00  1.00  1.00
A_2    1.00  1.00 -1.00
E      2.00 -1.00  0.00

     the symmetry operations in each class and the name of the first element:

     E        1
                                                                 
     2C3      2    3
                                                                 
     3s_v     4    5    6
                                                                 

     Band symmetry, C_3v (3m)   point group:

     e(  1 -  6) =    -28.39772  eV     6   -->   3 E    L_3       
     e(  7 - 12) =    -28.39732  eV     6   -->   3 E    L_3       
     e( 13 - 18) =    -28.34916  eV     6   -->   3 E    L_3       
     e( 19 - 24) =    -28.34647  eV     6   -->   3 E    L_3       
     e( 25 - 27) =    -28.33137  eV     3   -->   3 A_1  L_1       
     e( 28 - 30) =    -28.32806  eV     3   -->   3 A_1  L_1       
     e( 31 - 33) =     -6.71465  eV     3   -->   3 A_1  L_1       
     e( 34 - 39) =     -6.52129  eV     6   -->   3 E    L_3       
     e( 40 - 45) =     -6.41324  eV     6   -->   3 E    L_3       
     e( 46 - 51) =     -6.40026  eV     6   -->   3 E    L_3       
     e( 52 - 57) =     -6.25786  eV     6   -->   3 E    L_3       
     e( 58 - 59) =     -6.15978  eV     2   -->   2 A_1  L_1       
     e( 60 - 60) =     -6.15962  eV     1   --> A_1  L_1       
     e( 61 - 61) =     -3.89171  eV     1   --> A_1  L_1       
     e( 62 - 62) =     -3.89159  eV     1   --> A_1  L_1       
     e( 63 - 63) =     -3.79706  eV     1   --> A_1  L_1       
     e( 64 - 64) =     -3.59442  eV     1   --> A_1  L_1       
     e( 65 - 66) =     -3.47633  eV     2   -->   2 A_1  L_1       
     e( 67 - 68) =      2.05454  eV     2   -->   2 A_1  L_1       
     e( 69 - 69) =      2.44263  eV     1   --> A_1  L_1       
     e( 70 - 70) =      3.83214  eV     1   --> A_1  L_1       
     e( 71 - 71) =      4.65542  eV     1   --> A_1  L_1       
     e( 72 - 72) =      4.65556  eV     1   --> A_1  L_1       
     e( 73 - 74) =      6.89259  eV     2   --> E    L_3       
     e( 75 - 78) =      6.95912  eV     4   -->   2 E    L_3       
     e( 79 - 80) =      6.96517  eV     2   -->   2 A_1  L_1       
     e( 81 - 84) =      7.14996  eV     4   -->   2 E    L_3       
     e( 85 - 86) =      7.22953  eV     2   --> E    L_3       
     e( 87 - 87) =      8.30579  eV     1   --> A_1  L_1       
     e( 88 - 88) =      8.52224  eV     1   --> A_1  L_1       
     e( 89 - 90) =      9.51230  eV     2   -->   2 A_1  L_1       
     e( 91 - 91) =      9.76686  eV     1   --> A_1  L_1       
     e( 92 - 93) =      9.80487  eV     2   -->   2 A_1  L_1       
     e( 94 - 95) =     11.16760  eV     2   --> E    L_3       
     e( 96 - 99) =     11.24675  eV     4   -->   2 E    L_3       
     e(100 -103) =     12.36970  eV     4   -->   2 E    L_3       
     e(104 -105) =     12.47354  eV     2   --> E    L_3       
     e(106 -106) =     12.89623  eV     1   --> A_1  L_1       
     e(107 -107) =     12.89651  eV     1   --> A_1  L_1       
     e(108 -108) =     13.28092  eV     1   --> A_1  L_1       
     e(109 -110) =     14.30197  eV     2   -->   2 A_1  L_1       
     e(111 -111) =     14.49914  eV     1   --> A_1  L_1       
     e(112 -112) =     15.31075  eV     1   --> A_1  L_1       
     e(113 -113) =     15.31090  eV     1   --> A_1  L_1       
     e(114 -115) =     15.37341  eV     2   --> E    L_3       
     e(116 -116) =     15.48566  eV     1   --> A_1  L_1       
     e(117 -120) =     15.58483  eV     4   -->   2 E    L_3       

 **************************************************************************

 **************************************************************************

                    xk=(   0.00000,   0.01985,   0.07625  )

     point group C_s (m)    
     there are  2 classes
     the character table:

       E     s    
A'     1.00  1.00
A''    1.00 -1.00

     the symmetry operations in each class and the name of the first element:

     E        1
                                                                 
     s        2
                                                                 

     Band symmetry, C_s (m)     point group:

     e(  1 -  6) =    -28.39772  eV     6   -->   3 A'             
     e(  1 -  6) =    -28.39772  eV     6   -->   3 A''            
     e(  7 - 12) =    -28.39732  eV     6   -->   3 A'             
     e(  7 - 12) =    -28.39732  eV     6   -->   3 A''            
     e( 13 - 18) =    -28.34916  eV     6   -->   3 A'             
     e( 13 - 18) =    -28.34916  eV     6   -->   3 A''            
     e( 19 - 24) =    -28.34647  eV     6   -->   3 A'             
     e( 19 - 24) =    -28.34647  eV     6   -->   3 A''            
     e( 25 - 27) =    -28.33136  eV     3   -->   3 A'             
     e( 28 - 30) =    -28.32806  eV     3   -->   3 A'             
     e( 31 - 33) =     -6.71458  eV     3   -->   3 A'             
     e( 34 - 36) =     -6.52167  eV     3   -->   3 A'             
     e( 37 - 39) =     -6.52130  eV     3   -->   3 A''            
     e( 40 - 42) =     -6.41332  eV     3   -->   3 A'             
     e( 43 - 45) =     -6.41310  eV     3   -->   3 A''            
     e( 46 - 48) =     -6.40060  eV     3   -->   3 A'             
     e( 49 - 51) =     -6.40013  eV     3   -->   3 A''            
     e( 52 - 54) =     -6.25811  eV     3   -->   3 A'             
     e( 55 - 57) =     -6.25789  eV     3   -->   3 A''            
     e( 58 - 59) =     -6.15953  eV     2   -->   2 A'             
     e( 60 - 60) =     -6.15937  eV     1   --> A'             
     e( 61 - 61) =     -3.88878  eV     1   --> A'             
     e( 62 - 62) =     -3.88866  eV     1   --> A'             
     e( 63 - 63) =     -3.79418  eV     1   --> A'             
     e( 64 - 64) =     -3.59165  eV     1   --> A'             
     e( 65 - 66) =     -3.47365  eV     2   -->   2 A'             
     e( 67 - 68) =      2.05626  eV     2   -->   2 A'             
     e( 69 - 69) =      2.44287  eV     1   --> A'             
     e( 70 - 70) =      3.83406  eV     1   --> A'             
     e( 71 - 71) =      4.65208  eV     1   --> A'             
     e( 72 - 72) =      4.65223  eV     1   --> A'             
     e( 73 - 73) =      6.86994  eV     1   --> A'             
     e( 74 - 74) =      6.88686  eV     1   --> A''            
     e( 75 - 75) =      6.89758  eV     1   --> A'             
     e( 76 - 76) =      6.90467  eV     1   --> A'             
     e( 77 - 77) =      6.93851  eV     1   --> A'             
     e( 78 - 78) =      6.94644  eV     1   --> A''            
     e( 79 - 79) =      6.95850  eV     1   --> A'             
     e( 80 - 80) =      6.96065  eV     1   --> A''            
     e( 81 - 81) =      7.13796  eV     1   --> A''            
     e( 82 - 82) =      7.15361  eV     1   --> A''            
     e( 83 - 83) =      7.17894  eV     1   --> A'             
     e( 84 - 84) =      7.18386  eV     1   --> A'             
     e( 85 - 85) =      7.19311  eV     1   --> A'             
     e( 86 - 86) =      7.22553  eV     1   --> A''            
     e( 87 - 87) =      8.30454  eV     1   --> A'             
     e( 88 - 88) =      8.56302  eV     1   --> A'             
     e( 89 - 89) =      9.52718  eV     1   --> A'             
     e( 90 - 90) =      9.52785  eV     1   --> A'             
     e( 91 - 91) =      9.78599  eV     1   --> A'             
     e( 92 - 92) =      9.82412  eV     1   --> A'             
     e( 93 - 93) =      9.82456  eV     1   --> A'             
     e( 94 - 94) =     11.15852  eV     1   --> A'             
     e( 95 - 95) =     11.17287  eV     1   --> A''            
     e( 96 - 96) =     11.22599  eV     1   --> A'             
     e( 97 - 97) =     11.23696  eV     1   --> A'             
     e( 98 - 98) =     11.24707  eV     1   --> A''            
     e( 99 - 99) =     11.25806  eV     1   --> A''            
     e(100 -100) =     12.34500  eV     1   --> A'             
     e(101 -101) =     12.36713  eV     1   --> A''            
     e(102 -102) =     12.36781  eV     1   --> A'             
     e(103 -103) =     12.38911  eV     1   --> A''            
     e(104 -104) =     12.45971  eV     1   --> A'             
     e(105 -105) =     12.48231  eV     1   --> A''            
     e(106 -106) =     12.90100  eV     1   --> A'             
     e(107 -107) =     12.90209  eV     1   --> A'             
     e(108 -108) =     13.28581  eV     1   --> A'             
     e(109 -109) =     14.32399  eV     1   --> A'             
     e(110 -110) =     14.32424  eV     1   --> A'             
     e(111 -111) =     14.51910  eV     1   --> A'             
     e(112 -112) =     15.25249  eV     1   --> A'             
     e(113 -113) =     15.27974  eV     1   --> A'             
     e(114 -114) =     15.32583  eV     1   --> A'             
     e(115 -115) =     15.36352  eV     1   --> A''            
     e(116 -116) =     15.50897  eV     1   --> A''            
     e(117 -117) =     15.51721  eV     1   --> A'             
     e(118 -118) =     15.54147  eV     1   --> A'             
     e(119 -119) =     15.64008  eV     1   --> A'             
     e(120 -120) =     15.65665  eV     1   --> A''            

 **************************************************************************

 **************************************************************************

                    xk=(   0.00000,   0.03970,   0.07625  )

     Band symmetry, C_s (m)     point group:

     e(  1 -  6) =    -28.39771  eV     6   -->   3 A'             
     e(  1 -  6) =    -28.39771  eV     6   -->   3 A''            
     e(  7 - 12) =    -28.39731  eV     6   -->   3 A'             
     e(  7 - 12) =    -28.39731  eV     6   -->   3 A''            
     e( 13 - 18) =    -28.34917  eV     6   -->   3 A'             
     e( 13 - 18) =    -28.34917  eV     6   -->   3 A''            
     e( 19 - 24) =    -28.34647  eV     6   -->   3 A'             
     e( 19 - 24) =    -28.34647  eV     6   -->   3 A''            
     e( 25 - 27) =    -28.33136  eV     3   -->   3 A'             
     e( 28 - 30) =    -28.32805  eV     3   -->   3 A'             
     e( 31 - 33) =     -6.71439  eV     3   -->   3 A'             
     e( 34 - 36) =     -6.52281  eV     3   -->   3 A'             
     e( 37 - 39) =     -6.52133  eV     3   -->   3 A''            
     e( 40 - 42) =     -6.41355  eV     3   -->   3 A'             
     e( 43 - 45) =     -6.41270  eV     3   -->   3 A''            
     e( 46 - 48) =     -6.40160  eV     3   -->   3 A'             
     e( 49 - 51) =     -6.39973  eV     3   -->   3 A''            
     e( 52 - 54) =     -6.25882  eV     3   -->   3 A'             
     e( 55 - 57) =     -6.25795  eV     3   -->   3 A''            
     e( 58 - 59) =     -6.15879  eV     2   -->   2 A'             
     e( 60 - 60) =     -6.15863  eV     1   --> A'             
     e( 61 - 61) =     -3.88000  eV     1   --> A'             
     e( 62 - 62) =     -3.87989  eV     1   --> A'             
     e( 63 - 63) =     -3.78556  eV     1   --> A'             
     e( 64 - 64) =     -3.58336  eV     1   --> A'             
     e( 65 - 66) =     -3.46562  eV     2   -->   2 A'             
     e( 67 - 67) =      2.06135  eV     1   --> A'             
     e( 68 - 68) =      2.06148  eV     1   --> A'             
     e( 69 - 69) =      2.44352  eV     1   --> A'             
     e( 70 - 70) =      3.83976  eV     1   --> A'             
     e( 71 - 71) =      4.64165  eV     1   --> A'             
     e( 72 - 72) =      4.64221  eV     1   --> A'             
     e( 73 - 73) =      6.77276  eV     1   --> A'             
     e( 74 - 74) =      6.79189  eV     1   --> A'             
     e( 75 - 75) =      6.80447  eV     1   --> A'             
     e( 76 - 76) =      6.86994  eV     1   --> A''            
     e( 77 - 77) =      6.87526  eV     1   --> A'             
     e( 78 - 78) =      6.91689  eV     1   --> A'             
     e( 79 - 79) =      6.92300  eV     1   --> A''            
     e( 80 - 80) =      6.95100  eV     1   --> A''            
     e( 81 - 81) =      7.06263  eV     1   --> A'             
     e( 82 - 82) =      7.11779  eV     1   --> A''            
     e( 83 - 83) =      7.14873  eV     1   --> A''            
     e( 84 - 84) =      7.21358  eV     1   --> A''            
     e( 85 - 85) =      7.23354  eV     1   --> A'             
     e( 86 - 86) =      7.25746  eV     1   --> A'             
     e( 87 - 87) =      8.29748  eV     1   --> A'             
     e( 88 - 88) =      8.67200  eV     1   --> A'             
     e( 89 - 89) =      9.56643  eV     1   --> A'             
     e( 90 - 90) =      9.57156  eV     1   --> A'             
     e( 91 - 91) =      9.84069  eV     1   --> A'             
     e( 92 - 92) =      9.87952  eV     1   --> A'             
     e( 93 - 93) =      9.88275  eV     1   --> A'             
     e( 94 - 94) =     11.13341  eV     1   --> A'             
     e( 95 - 95) =     11.17813  eV     1   --> A'             
     e( 96 - 96) =     11.18839  eV     1   --> A''            
     e( 97 - 97) =     11.19882  eV     1   --> A'             
     e( 98 - 98) =     11.25928  eV     1   --> A''            
     e( 99 - 99) =     11.28004  eV     1   --> A''            
     e(100 -100) =     12.29509  eV     1   --> A'             
     e(101 -101) =     12.34407  eV     1   --> A'             
     e(102 -102) =     12.38158  eV     1   --> A''            
     e(103 -103) =     12.42014  eV     1   --> A'             
     e(104 -104) =     12.42456  eV     1   --> A''            
     e(105 -105) =     12.50836  eV     1   --> A''            
     e(106 -106) =     12.91137  eV     1   --> A'             
     e(107 -107) =     12.91895  eV     1   --> A'             
     e(108 -108) =     13.30025  eV     1   --> A'             
     e(109 -109) =     14.38639  eV     1   --> A'             
     e(110 -110) =     14.38860  eV     1   --> A'             
     e(111 -111) =     14.57468  eV     1   --> A'             
     e(112 -112) =     15.08907  eV     1   --> A'             
     e(113 -113) =     15.20220  eV     1   --> A'             
     e(114 -114) =     15.21279  eV     1   --> A'             
     e(115 -115) =     15.33672  eV     1   --> A''            
     e(116 -116) =     15.43415  eV     1   --> A''            
     e(117 -117) =     15.59143  eV     1   --> A'             
     e(118 -118) =     15.59342  eV     1   --> A'             
     e(119 -119) =     15.65216  eV     1   --> A'             
     e(120 -120) =     15.71909  eV     1   --> A''            

 **************************************************************************

 **************************************************************************

                    xk=(   0.00000,   0.05954,   0.07625  )

     Band symmetry, C_s (m)     point group:

     e(  1 -  6) =    -28.39771  eV     6   -->   3 A'             
     e(  1 -  6) =    -28.39771  eV     6   -->   3 A''            
     e(  7 - 12) =    -28.39731  eV     6   -->   3 A'             
     e(  7 - 12) =    -28.39731  eV     6   -->   3 A''            
     e( 13 - 18) =    -28.34917  eV     6   -->   3 A'             
     e( 13 - 18) =    -28.34917  eV     6   -->   3 A''            
     e( 19 - 24) =    -28.34648  eV     6   -->   3 A'             
     e( 19 - 24) =    -28.34648  eV     6   -->   3 A''            
     e( 25 - 27) =    -28.33134  eV     3   -->   3 A'             
     e( 28 - 30) =    -28.32804  eV     3   -->   3 A'             
     e( 31 - 33) =     -6.71407  eV     3   -->   3 A'             
     e( 34 - 36) =     -6.52474  eV     3   -->   3 A'             
     e( 37 - 39) =     -6.52138  eV     3   -->   3 A''            
     e( 40 - 42) =     -6.41394  eV     3   -->   3 A'             
     e( 43 - 45) =     -6.41202  eV     3   -->   3 A''            
     e( 46 - 48) =     -6.40328  eV     3   -->   3 A'             
     e( 49 - 51) =     -6.39906  eV     3   -->   3 A''            
     e( 52 - 54) =     -6.25999  eV     3   -->   3 A'             
     e( 55 - 57) =     -6.25806  eV     3   -->   3 A''            
     e( 58 - 59) =     -6.15759  eV     2   -->   2 A'             
     e( 60 - 60) =     -6.15742  eV     1   --> A'             
     e( 61 - 61) =     -3.86544  eV     1   --> A'             
     e( 62 - 62) =     -3.86532  eV     1   --> A'             
     e( 63 - 63) =     -3.77125  eV     1   --> A'             
     e( 64 - 64) =     -3.56960  eV     1   --> A'             
     e( 65 - 66) =     -3.45231  eV     2   -->   2 A'             
     e( 67 - 67) =      2.06961  eV     1   --> A'             
     e( 68 - 68) =      2.06994  eV     1   --> A'             
     e( 69 - 69) =      2.44436  eV     1   --> A'             
     e( 70 - 70) =      3.84905  eV     1   --> A'             
     e( 71 - 71) =      4.62322  eV     1   --> A'             
     e( 72 - 72) =      4.62505  eV     1   --> A'             
     e( 73 - 73) =      6.62085  eV     1   --> A'             
     e( 74 - 74) =      6.64818  eV     1   --> A'             
     e( 75 - 75) =      6.70220  eV     1   --> A'             
     e( 76 - 76) =      6.78909  eV     1   --> A'             
     e( 77 - 77) =      6.84247  eV     1   --> A''            
     e( 78 - 78) =      6.84634  eV     1   --> A'             
     e( 79 - 79) =      6.88960  eV     1   --> A''            
     e( 80 - 80) =      6.89544  eV     1   --> A'             
     e( 81 - 81) =      6.93066  eV     1   --> A''            
     e( 82 - 82) =      7.08987  eV     1   --> A''            
     e( 83 - 83) =      7.13549  eV     1   --> A''            
     e( 84 - 84) =      7.19390  eV     1   --> A''            
     e( 85 - 85) =      7.28331  eV     1   --> A'             
     e( 86 - 86) =      7.31271  eV     1   --> A'             
     e( 87 - 87) =      8.28104  eV     1   --> A'             
     e( 88 - 88) =      8.82123  eV     1   --> A'             
     e( 89 - 89) =      9.61875  eV     1   --> A'             
     e( 90 - 90) =      9.63483  eV     1   --> A'             
     e( 91 - 91) =      9.92318  eV     1   --> A'             
     e( 92 - 92) =      9.96510  eV     1   --> A'             
     e( 93 - 93) =      9.97467  eV     1   --> A'             
     e( 94 - 94) =     11.09855  eV     1   --> A'             
     e( 95 - 95) =     11.11198  eV     1   --> A'             
     e( 96 - 96) =     11.13999  eV     1   --> A'             
     e( 97 - 97) =     11.21336  eV     1   --> A''            
     e( 98 - 98) =     11.28312  eV     1   --> A''            
     e( 99 - 99) =     11.31130  eV     1   --> A''            
     e(100 -100) =     12.22700  eV     1   --> A'             
     e(101 -101) =     12.30661  eV     1   --> A'             
     e(102 -102) =     12.35995  eV     1   --> A'             
     e(103 -103) =     12.41288  eV     1   --> A''            
     e(104 -104) =     12.47489  eV     1   --> A''            
     e(105 -105) =     12.55100  eV     1   --> A''            
     e(106 -106) =     12.92239  eV     1   --> A'             
     e(107 -107) =     12.94436  eV     1   --> A'             
     e(108 -108) =     13.32357  eV     1   --> A'             
     e(109 -109) =     14.47738  eV     1   --> A'             
     e(110 -110) =     14.48705  eV     1   --> A'             
     e(111 -111) =     14.64724  eV     1   --> A'             
     e(112 -112) =     14.89427  eV     1   --> A'             
     e(113 -113) =     15.07730  eV     1   --> A'             
     e(114 -114) =     15.08876  eV     1   --> A'             
     e(115 -115) =     15.29994  eV     1   --> A''            
     e(116 -116) =     15.36493  eV     1   --> A''            
     e(117 -117) =     15.65082  eV     1   --> A'             
     e(118 -118) =     15.68581  eV     1   --> A'             
     e(119 -119) =     15.69045  eV     1   --> A'             
     e(120 -120) =     15.75323  eV     1   --> A'             

 **************************************************************************

 **************************************************************************

                    xk=(   0.00000,   0.07939,   0.07625  )

     Band symmetry, C_s (m)     point group:

     e(  1 -  6) =    -28.39771  eV     6   -->   3 A'             
     e(  1 -  6) =    -28.39771  eV     6   -->   3 A''            
     e(  7 - 12) =    -28.39731  eV     6   -->   3 A'             
     e(  7 - 12) =    -28.39731  eV     6   -->   3 A''            
     e( 13 - 18) =    -28.34918  eV     6   -->   3 A'             
     e( 13 - 18) =    -28.34918  eV     6   -->   3 A''            
     e( 19 - 24) =    -28.34649  eV     6   -->   3 A'             
     e( 19 - 24) =    -28.34649  eV     6   -->   3 A''            
     e( 25 - 27) =    -28.33132  eV     3   -->   3 A'             
     e( 28 - 30) =    -28.32802  eV     3   -->   3 A'             
     e( 31 - 33) =     -6.71364  eV     3   -->   3 A'             
     e( 34 - 35) =     -6.52743  eV     2   -->   2 A'             
     e( 36 - 36) =     -6.52720  eV     1   --> A'             
     e( 37 - 39) =     -6.52146  eV     3   -->   3 A''            
     e( 40 - 42) =     -6.41446  eV     3   -->   3 A'             
     e( 43 - 45) =     -6.41109  eV     3   -->   3 A''            
     e( 46 - 48) =     -6.40565  eV     3   -->   3 A'             
     e( 49 - 51) =     -6.39813  eV     3   -->   3 A''            
     e( 52 - 52) =     -6.26155  eV     1   --> A'             
     e( 53 - 54) =     -6.26145  eV     2   -->   2 A'             
     e( 55 - 57) =     -6.25821  eV     3   -->   3 A''            
     e( 58 - 59) =     -6.15598  eV     2   -->   2 A'             
     e( 60 - 60) =     -6.15581  eV     1   --> A'             
     e( 61 - 61) =     -3.84519  eV     1   --> A'             
     e( 62 - 62) =     -3.84506  eV     1   --> A'             
     e( 63 - 63) =     -3.75136  eV     1   --> A'             
     e( 64 - 64) =     -3.55047  eV     1   --> A'             
     e( 65 - 66) =     -3.43384  eV     2   -->   2 A'             
     e( 67 - 67) =      2.08074  eV     1   --> A'             
     e( 68 - 68) =      2.08152  eV     1   --> A'             
     e( 69 - 69) =      2.44503  eV     1   --> A'             
     e( 70 - 70) =      3.86160  eV     1   --> A'             
     e( 71 - 71) =      4.59550  eV     1   --> A'             
     e( 72 - 72) =      4.59986  eV     1   --> A'             
     e( 73 - 73) =      6.45162  eV     1   --> A'             
     e( 74 - 74) =      6.48277  eV     1   --> A'             
     e( 75 - 75) =      6.56954  eV     1   --> A'             
     e( 76 - 76) =      6.68926  eV     1   --> A'             
     e( 77 - 77) =      6.70648  eV     1   --> A'             
     e( 78 - 78) =      6.75661  eV     1   --> A'             
     e( 79 - 79) =      6.80550  eV     1   --> A''            
     e( 80 - 80) =      6.84732  eV     1   --> A''            
     e( 81 - 81) =      6.90053  eV     1   --> A''            
     e( 82 - 82) =      7.05469  eV     1   --> A''            
     e( 83 - 83) =      7.11423  eV     1   --> A''            
     e( 84 - 84) =      7.16684  eV     1   --> A''            
     e( 85 - 85) =      7.32382  eV     1   --> A'             
     e( 86 - 86) =      7.35455  eV     1   --> A'             
     e( 87 - 87) =      8.25352  eV     1   --> A'             
     e( 88 - 88) =      8.98717  eV     1   --> A'             
     e( 89 - 89) =      9.67229  eV     1   --> A'             
     e( 90 - 90) =      9.70639  eV     1   --> A'             
     e( 91 - 91) =     10.02112  eV     1   --> A'             
     e( 92 - 92) =     10.06990  eV     1   --> A'             
     e( 93 - 93) =     10.08806  eV     1   --> A'             
     e( 94 - 94) =     11.04123  eV     1   --> A'             
     e( 95 - 95) =     11.06412  eV     1   --> A'             
     e( 96 - 96) =     11.07285  eV     1   --> A'             
     e( 97 - 97) =     11.24650  eV     1   --> A''            
     e( 98 - 98) =     11.31779  eV     1   --> A''            
     e( 99 - 99) =     11.34996  eV     1   --> A''            
     e(100 -100) =     12.14975  eV     1   --> A'             
     e(101 -101) =     12.26358  eV     1   --> A'             
     e(102 -102) =     12.28600  eV     1   --> A'             
     e(103 -103) =     12.46041  eV     1   --> A''            
     e(104 -104) =     12.53850  eV     1   --> A''            
     e(105 -105) =     12.60914  eV     1   --> A''            
     e(106 -106) =     12.93183  eV     1   --> A'             
     e(107 -107) =     12.97542  eV     1   --> A'             
     e(108 -108) =     13.35470  eV     1   --> A'             
     e(109 -109) =     14.56519  eV     1   --> A'             
     e(110 -110) =     14.59260  eV     1   --> A'             
     e(111 -111) =     14.67089  eV     1   --> A'             
     e(112 -112) =     14.71575  eV     1   --> A'             
     e(113 -113) =     14.97767  eV     1   --> A'             
     e(114 -114) =     14.99883  eV     1   --> A'             
     e(115 -115) =     15.26104  eV     1   --> A''            
     e(116 -116) =     15.30522  eV     1   --> A''            
     e(117 -117) =     15.61234  eV     1   --> A'             
     e(118 -118) =     15.62088  eV     1   --> A'             
     e(119 -119) =     15.79747  eV     1   --> A'             
     e(120 -120) =     15.80177  eV     1   --> A''            

 **************************************************************************

 **************************************************************************

                    xk=(   0.00000,   0.09924,   0.07625  )

     Band symmetry, C_s (m)     point group:

     e(  1 -  6) =    -28.39771  eV     6   -->   3 A'             
     e(  1 -  6) =    -28.39771  eV     6   -->   3 A''            
     e(  7 - 12) =    -28.39730  eV     6   -->   3 A'             
     e(  7 - 12) =    -28.39730  eV     6   -->   3 A''            
     e( 13 - 18) =    -28.34919  eV     6   -->   3 A'             
     e( 13 - 18) =    -28.34919  eV     6   -->   3 A''            
     e( 19 - 24) =    -28.34651  eV     6   -->   3 A'             
     e( 19 - 24) =    -28.34651  eV     6   -->   3 A''            
     e( 25 - 27) =    -28.33130  eV     3   -->   3 A'             
     e( 28 - 30) =    -28.32799  eV     3   -->   3 A'             
     e( 31 - 33) =     -6.71309  eV     3   -->   3 A'             
     e( 34 - 35) =     -6.53080  eV     2   -->   2 A'             
     e( 36 - 36) =     -6.53043  eV     1   --> A'             
     e( 37 - 39) =     -6.52156  eV     3   -->   3 A''            
     e( 40 - 42) =     -6.41511  eV     3   -->   3 A'             
     e( 43 - 45) =     -6.40991  eV     3   -->   3 A''            
     e( 46 - 46) =     -6.40865  eV     1   --> A'             
     e( 47 - 48) =     -6.40846  eV     2   -->   2 A'             
     e( 49 - 51) =     -6.39697  eV     3   -->   3 A''            
     e( 52 - 52) =     -6.26342  eV     1   --> A'             
     e( 53 - 54) =     -6.26325  eV     2   -->   2 A'             
     e( 55 - 57) =     -6.25839  eV     3   -->   3 A''            
     e( 58 - 59) =     -6.15401  eV     2   -->   2 A'             
     e( 60 - 60) =     -6.15384  eV     1   --> A'             
     e( 61 - 61) =     -3.81937  eV     1   --> A'             
     e( 62 - 62) =     -3.81922  eV     1   --> A'             
     e( 63 - 63) =     -3.72602  eV     1   --> A'             
     e( 64 - 64) =     -3.52613  eV     1   --> A'             
     e( 65 - 65) =     -3.41035  eV     1   --> A'             
     e( 66 - 66) =     -3.41021  eV     1   --> A'             
     e( 67 - 67) =      2.09434  eV     1   --> A'             
     e( 68 - 68) =      2.09590  eV     1   --> A'             
     e( 69 - 69) =      2.44501  eV     1   --> A'             
     e( 70 - 70) =      3.87686  eV     1   --> A'             
     e( 71 - 71) =      4.55688  eV     1   --> A'             
     e( 72 - 72) =      4.56543  eV     1   --> A'             
     e( 73 - 73) =      6.27045  eV     1   --> A'             
     e( 74 - 74) =      6.30157  eV     1   --> A'             
     e( 75 - 75) =      6.40948  eV     1   --> A'             
     e( 76 - 76) =      6.51439  eV     1   --> A'             
     e( 77 - 77) =      6.58406  eV     1   --> A'             
     e( 78 - 78) =      6.65745  eV     1   --> A'             
     e( 79 - 79) =      6.76025  eV     1   --> A''            
     e( 80 - 80) =      6.79738  eV     1   --> A''            
     e( 81 - 81) =      6.86181  eV     1   --> A''            
     e( 82 - 82) =      7.01288  eV     1   --> A''            
     e( 83 - 83) =      7.08552  eV     1   --> A''            
     e( 84 - 84) =      7.13295  eV     1   --> A''            
     e( 85 - 85) =      7.35526  eV     1   --> A'             
     e( 86 - 86) =      7.38342  eV     1   --> A'             
     e( 87 - 87) =      8.21396  eV     1   --> A'             
     e( 88 - 88) =      9.15445  eV     1   --> A'             
     e( 89 - 89) =      9.71710  eV     1   --> A'             
     e( 90 - 90) =      9.77504  eV     1   --> A'             
     e( 91 - 91) =     10.11784  eV     1   --> A'             
     e( 92 - 92) =     10.17579  eV     1   --> A'             
     e( 93 - 93) =     10.20049  eV     1   --> A'             
     e( 94 - 94) =     10.98659  eV     1   --> A'             
     e( 95 - 95) =     11.01541  eV     1   --> A'             
     e( 96 - 96) =     11.04414  eV     1   --> A'             
     e( 97 - 97) =     11.28609  eV     1   --> A''            
     e( 98 - 98) =     11.36198  eV     1   --> A''            
     e( 99 - 99) =     11.39382  eV     1   --> A''            
     e(100 -100) =     12.07167  eV     1   --> A'             
     e(101 -101) =     12.20551  eV     1   --> A'             
     e(102 -102) =     12.22120  eV     1   --> A'             
     e(103 -103) =     12.52315  eV     1   --> A''            
     e(104 -104) =     12.61336  eV     1   --> A''            
     e(105 -105) =     12.68130  eV     1   --> A''            
     e(106 -106) =     12.94130  eV     1   --> A'             
     e(107 -107) =     13.01116  eV     1   --> A'             
     e(108 -108) =     13.39213  eV     1   --> A'             
     e(109 -109) =     14.49080  eV     1   --> A'             
     e(110 -110) =     14.56463  eV     1   --> A'             
     e(111 -111) =     14.57406  eV     1   --> A'             
     e(112 -112) =     14.76345  eV     1   --> A'             
     e(113 -113) =     14.95887  eV     1   --> A'             
     e(114 -114) =     15.04449  eV     1   --> A'             
     e(115 -115) =     15.22692  eV     1   --> A''            
     e(116 -116) =     15.25833  eV     1   --> A''            
     e(117 -117) =     15.52058  eV     1   --> A'             
     e(118 -118) =     15.54636  eV     1   --> A'             
     e(119 -119) =     15.82164  eV     1   --> A''            
     e(120 -120) =     15.84700  eV     1   --> A'             

 **************************************************************************

 **************************************************************************

                    xk=(   0.00000,   0.11909,   0.07625  )

     Band symmetry, C_s (m)     point group:

     e(  1 -  3) =    -28.39770  eV     3   -->   3 A'             
     e(  4 -  6) =    -28.39753  eV     3   -->   3 A''            
     e(  7 -  9) =    -28.39730  eV     3   -->   3 A'             
     e( 10 - 12) =    -28.39713  eV     3   -->   3 A''            
     e( 13 - 18) =    -28.34920  eV     6   -->   3 A'             
     e( 13 - 18) =    -28.34920  eV     6   -->   3 A''            
     e( 19 - 24) =    -28.34653  eV     6   -->   3 A'             
     e( 19 - 24) =    -28.34653  eV     6   -->   3 A''            
     e( 25 - 27) =    -28.33127  eV     3   -->   3 A'             
     e( 28 - 30) =    -28.32797  eV     3   -->   3 A'             
     e( 31 - 33) =     -6.71243  eV     3   -->   3 A'             
     e( 34 - 34) =     -6.53482  eV     1   --> A'             
     e( 35 - 35) =     -6.53471  eV     1   --> A'             
     e( 36 - 36) =     -6.53427  eV     1   --> A'             
     e( 37 - 39) =     -6.52169  eV     3   -->   3 A''            
     e( 40 - 42) =     -6.41588  eV     3   -->   3 A'             
     e( 43 - 43) =     -6.41224  eV     1   --> A'             
     e( 44 - 45) =     -6.41195  eV     2   -->   2 A'             
     e( 46 - 48) =     -6.40849  eV     3   -->   3 A''            
     e( 49 - 51) =     -6.39558  eV     3   -->   3 A''            
     e( 52 - 52) =     -6.26551  eV     1   --> A'             
     e( 53 - 54) =     -6.26527  eV     2   -->   2 A'             
     e( 55 - 57) =     -6.25861  eV     3   -->   3 A''            
     e( 58 - 59) =     -6.15175  eV     2   -->   2 A'             
     e( 60 - 60) =     -6.15159  eV     1   --> A'             
     e( 61 - 61) =     -3.78817  eV     1   --> A'             
     e( 62 - 62) =     -3.78798  eV     1   --> A'             
     e( 63 - 63) =     -3.69540  eV     1   --> A'             
     e( 64 - 64) =     -3.49673  eV     1   --> A'             
     e( 65 - 65) =     -3.38203  eV     1   --> A'             
     e( 66 - 66) =     -3.38181  eV     1   --> A'             
     e( 67 - 67) =      2.10988  eV     1   --> A'             
     e( 68 - 68) =      2.11264  eV     1   --> A'             
     e( 69 - 69) =      2.44363  eV     1   --> A'             
     e( 70 - 70) =      3.89404  eV     1   --> A'             
     e( 71 - 71) =      4.50564  eV     1   --> A'             
     e( 72 - 72) =      4.52043  eV     1   --> A'             
     e( 73 - 73) =      6.08171  eV     1   --> A'             
     e( 74 - 74) =      6.10987  eV     1   --> A'             
     e( 75 - 75) =      6.22351  eV     1   --> A'             
     e( 76 - 76) =      6.33303  eV     1   --> A'             
     e( 77 - 77) =      6.48025  eV     1   --> A'             
     e( 78 - 78) =      6.55730  eV     1   --> A'             
     e( 79 - 79) =      6.70811  eV     1   --> A''            
     e( 80 - 80) =      6.74112  eV     1   --> A''            
     e( 81 - 81) =      6.81586  eV     1   --> A''            
     e( 82 - 82) =      6.96515  eV     1   --> A''            
     e( 83 - 83) =      7.05014  eV     1   --> A''            
     e( 84 - 84) =      7.09292  eV     1   --> A''            
     e( 85 - 85) =      7.37854  eV     1   --> A'             
     e( 86 - 86) =      7.40042  eV     1   --> A'             
     e( 87 - 87) =      8.16192  eV     1   --> A'             
     e( 88 - 88) =      9.31268  eV     1   --> A'             
     e( 89 - 89) =      9.74530  eV     1   --> A'             
     e( 90 - 90) =      9.83073  eV     1   --> A'             
     e( 91 - 91) =     10.19388  eV     1   --> A'             
     e( 92 - 92) =     10.25605  eV     1   --> A'             
     e( 93 - 93) =     10.27809  eV     1   --> A'             
     e( 94 - 94) =     10.97832  eV     1   --> A'             
     e( 95 - 95) =     10.99282  eV     1   --> A'             
     e( 96 - 96) =     11.05495  eV     1   --> A'             
     e( 97 - 97) =     11.33011  eV     1   --> A''            
     e( 98 - 98) =     11.41399  eV     1   --> A''            
     e( 99 - 99) =     11.44048  eV     1   --> A''            
     e(100 -100) =     11.99921  eV     1   --> A'             
     e(101 -101) =     12.12507  eV     1   --> A'             
     e(102 -102) =     12.18259  eV     1   --> A'             
     e(103 -103) =     12.59973  eV     1   --> A''            
     e(104 -104) =     12.69703  eV     1   --> A''            
     e(105 -105) =     12.76568  eV     1   --> A''            
     e(106 -106) =     12.95617  eV     1   --> A'             
     e(107 -107) =     13.05289  eV     1   --> A'             
     e(108 -108) =     13.43357  eV     1   --> A'             
     e(109 -109) =     14.32492  eV     1   --> A'             
     e(110 -110) =     14.43454  eV     1   --> A'             
     e(111 -111) =     14.45107  eV     1   --> A'             
     e(112 -112) =     14.87824  eV     1   --> A'             
     e(113 -113) =     15.04575  eV     1   --> A'             
     e(114 -114) =     15.10217  eV     1   --> A'             
     e(115 -115) =     15.20307  eV     1   --> A''            
     e(116 -116) =     15.22712  eV     1   --> A''            
     e(117 -117) =     15.40482  eV     1   --> A'             
     e(118 -118) =     15.52276  eV     1   --> A'             
     e(119 -119) =     15.83003  eV     1   --> A''            
     e(120 -120) =     15.84802  eV     1   --> A'             

 **************************************************************************

 **************************************************************************

                    xk=(   0.00000,   0.13894,   0.07625  )

     Band symmetry, C_s (m)     point group:

     e(  1 -  3) =    -28.39770  eV     3   -->   3 A'             
     e(  4 -  6) =    -28.39747  eV     3   -->   3 A''            
     e(  7 -  9) =    -28.39729  eV     3   -->   3 A'             
     e( 10 - 12) =    -28.39706  eV     3   -->   3 A''            
     e( 13 - 18) =    -28.34922  eV     6   -->   3 A'             
     e( 13 - 18) =    -28.34922  eV     6   -->   3 A''            
     e( 19 - 24) =    -28.34655  eV     6   -->   3 A'             
     e( 19 - 24) =    -28.34655  eV     6   -->   3 A''            
     e( 25 - 27) =    -28.33123  eV     3   -->   3 A'             
     e( 28 - 30) =    -28.32793  eV     3   -->   3 A'             
     e( 31 - 33) =     -6.71168  eV     3   -->   3 A'             
     e( 34 - 34) =     -6.53940  eV     1   --> A'             
     e( 35 - 35) =     -6.53927  eV     1   --> A'             
     e( 36 - 36) =     -6.53866  eV     1   --> A'             
     e( 37 - 39) =     -6.52184  eV     3   -->   3 A''            
     e( 40 - 42) =     -6.41676  eV     3   -->   3 A'             
     e( 43 - 43) =     -6.41637  eV     1   --> A'             
     e( 44 - 45) =     -6.41595  eV     2   -->   2 A'             
     e( 46 - 48) =     -6.40685  eV     3   -->   3 A''            
     e( 49 - 51) =     -6.39397  eV     3   -->   3 A''            
     e( 52 - 52) =     -6.26775  eV     1   --> A'             
     e( 53 - 54) =     -6.26743  eV     2   -->   2 A'             
     e( 55 - 57) =     -6.25886  eV     3   -->   3 A''            
     e( 58 - 59) =     -6.14926  eV     2   -->   2 A'             
     e( 60 - 60) =     -6.14911  eV     1   --> A'             
     e( 61 - 61) =     -3.75180  eV     1   --> A'             
     e( 62 - 62) =     -3.75151  eV     1   --> A'             
     e( 63 - 63) =     -3.65973  eV     1   --> A'             
     e( 64 - 64) =     -3.46252  eV     1   --> A'             
     e( 65 - 65) =     -3.34914  eV     1   --> A'             
     e( 66 - 66) =     -3.34879  eV     1   --> A'             
     e( 67 - 67) =      2.12662  eV     1   --> A'             
     e( 68 - 68) =      2.13116  eV     1   --> A'             
     e( 69 - 69) =      2.44008  eV     1   --> A'             
     e( 70 - 70) =      3.91194  eV     1   --> A'             
     e( 71 - 71) =      4.44025  eV     1   --> A'             
     e( 72 - 72) =      4.46359  eV     1   --> A'             
     e( 73 - 73) =      5.88924  eV     1   --> A'             
     e( 74 - 74) =      5.91244  eV     1   --> A'             
     e( 75 - 75) =      6.02265  eV     1   --> A'             
     e( 76 - 76) =      6.16294  eV     1   --> A'             
     e( 77 - 77) =      6.38320  eV     1   --> A'             
     e( 78 - 78) =      6.46291  eV     1   --> A'             
     e( 79 - 79) =      6.65047  eV     1   --> A''            
     e( 80 - 80) =      6.67985  eV     1   --> A''            
     e( 81 - 81) =      6.76410  eV     1   --> A''            
     e( 82 - 82) =      6.91237  eV     1   --> A''            
     e( 83 - 83) =      7.00898  eV     1   --> A''            
     e( 84 - 84) =      7.04759  eV     1   --> A''            
     e( 85 - 85) =      7.39437  eV     1   --> A'             
     e( 86 - 86) =      7.40646  eV     1   --> A'             
     e( 87 - 87) =      8.09738  eV     1   --> A'             
     e( 88 - 88) =      9.45403  eV     1   --> A'             
     e( 89 - 89) =      9.75146  eV     1   --> A'             
     e( 90 - 90) =      9.86504  eV     1   --> A'             
     e( 91 - 91) =     10.23414  eV     1   --> A'             
     e( 92 - 92) =     10.28504  eV     1   --> A'             
     e( 93 - 93) =     10.29210  eV     1   --> A'             
     e( 94 - 94) =     11.02808  eV     1   --> A'             
     e( 95 - 95) =     11.04027  eV     1   --> A'             
     e( 96 - 96) =     11.10772  eV     1   --> A'             
     e( 97 - 97) =     11.37637  eV     1   --> A''            
     e( 98 - 98) =     11.47187  eV     1   --> A''            
     e( 99 - 99) =     11.48746  eV     1   --> A''            
     e(100 -100) =     11.93637  eV     1   --> A'             
     e(101 -101) =     12.05022  eV     1   --> A'             
     e(102 -102) =     12.14690  eV     1   --> A'             
     e(103 -103) =     12.68845  eV     1   --> A''            
     e(104 -104) =     12.78666  eV     1   --> A''            
     e(105 -105) =     12.86027  eV     1   --> A''            
     e(106 -106) =     12.98467  eV     1   --> A'             
     e(107 -107) =     13.10355  eV     1   --> A'             
     e(108 -108) =     13.47554  eV     1   --> A'             
     e(109 -109) =     14.17861  eV     1   --> A'             
     e(110 -110) =     14.30487  eV     1   --> A'             
     e(111 -111) =     14.30739  eV     1   --> A'             
     e(112 -112) =     14.95496  eV     1   --> A'             
     e(113 -113) =     15.08650  eV     1   --> A'             
     e(114 -114) =     15.08764  eV     1   --> A'             
     e(115 -115) =     15.19380  eV     1   --> A''            
     e(116 -116) =     15.21404  eV     1   --> A''            
     e(117 -117) =     15.35226  eV     1   --> A'             
     e(118 -118) =     15.53706  eV     1   --> A'             
     e(119 -119) =     15.82555  eV     1   --> A''            
     e(120 -120) =     15.86820  eV     1   --> A'             

 **************************************************************************

 **************************************************************************

                    xk=(   0.00000,   0.15879,   0.07625  )

     Band symmetry, C_s (m)     point group:

     e(  1 -  3) =    -28.39770  eV     3   -->   3 A'             
     e(  4 -  9) =    -28.39740  eV     6   -->   3 A'             
     e(  4 -  9) =    -28.39740  eV     6   -->   3 A''            
     e( 10 - 12) =    -28.39699  eV     3   -->   3 A''            
     e( 13 - 18) =    -28.34923  eV     6   -->   3 A'             
     e( 13 - 18) =    -28.34923  eV     6   -->   3 A''            
     e( 19 - 21) =    -28.34658  eV     3   -->   3 A'             
     e( 22 - 24) =    -28.34646  eV     3   -->   3 A''            
     e( 25 - 27) =    -28.33119  eV     3   -->   3 A'             
     e( 28 - 30) =    -28.32789  eV     3   -->   3 A'             
     e( 31 - 33) =     -6.71084  eV     3   -->   3 A'             
     e( 34 - 34) =     -6.54449  eV     1   --> A'             
     e( 35 - 35) =     -6.54432  eV     1   --> A'             
     e( 36 - 36) =     -6.54354  eV     1   --> A'             
     e( 37 - 38) =     -6.52202  eV     2   -->   2 A''            
     e( 39 - 39) =     -6.52185  eV     1   --> A''            
     e( 40 - 40) =     -6.42099  eV     1   --> A'             
     e( 41 - 42) =     -6.42046  eV     2   -->   2 A'             
     e( 43 - 45) =     -6.41768  eV     3   -->   3 A'             
     e( 46 - 48) =     -6.40501  eV     3   -->   3 A''            
     e( 49 - 51) =     -6.39218  eV     3   -->   3 A''            
     e( 52 - 52) =     -6.27005  eV     1   --> A'             
     e( 53 - 53) =     -6.26967  eV     1   --> A'             
     e( 54 - 54) =     -6.26957  eV     1   --> A'             
     e( 55 - 57) =     -6.25914  eV     3   -->   3 A''            
     e( 58 - 59) =     -6.14660  eV     2   -->   2 A'             
     e( 60 - 60) =     -6.14645  eV     1   --> A'             
     e( 61 - 61) =     -3.71049  eV     1   --> A'             
     e( 62 - 62) =     -3.71008  eV     1   --> A'             
     e( 63 - 63) =     -3.61924  eV     1   --> A'             
     e( 64 - 64) =     -3.42377  eV     1   --> A'             
     e( 65 - 65) =     -3.31195  eV     1   --> A'             
     e( 66 - 66) =     -3.31142  eV     1   --> A'             
     e( 67 - 67) =      2.14368  eV     1   --> A'             
     e( 68 - 68) =      2.15071  eV     1   --> A'             
     e( 69 - 69) =      2.43341  eV     1   --> A'             
     e( 70 - 70) =      3.92879  eV     1   --> A'             
     e( 71 - 71) =      4.35974  eV     1   --> A'             
     e( 72 - 72) =      4.39408  eV     1   --> A'             
     e( 73 - 73) =      5.69657  eV     1   --> A'             
     e( 74 - 74) =      5.71349  eV     1   --> A'             
     e( 75 - 75) =      5.82026  eV     1   --> A'             
     e( 76 - 76) =      6.00033  eV     1   --> A'             
     e( 77 - 77) =      6.29695  eV     1   --> A'             
     e( 78 - 78) =      6.37910  eV     1   --> A'             
     e( 79 - 79) =      6.58868  eV     1   --> A''            
     e( 80 - 80) =      6.61486  eV     1   --> A''            
     e( 81 - 81) =      6.70792  eV     1   --> A''            
     e( 82 - 82) =      6.85548  eV     1   --> A''            
     e( 83 - 83) =      6.96305  eV     1   --> A''            
     e( 84 - 84) =      6.99788  eV     1   --> A''            
     e( 85 - 85) =      7.40192  eV     1   --> A'             
     e( 86 - 86) =      7.40316  eV     1   --> A'             
     e( 87 - 87) =      8.02066  eV     1   --> A'             
     e( 88 - 88) =      9.57224  eV     1   --> A'             
     e( 89 - 89) =      9.73355  eV     1   --> A'             
     e( 90 - 90) =      9.87228  eV     1   --> A'             
     e( 91 - 91) =     10.23766  eV     1   --> A'             
     e( 92 - 92) =     10.24945  eV     1   --> A'             
     e( 93 - 93) =     10.26270  eV     1   --> A'             
     e( 94 - 94) =     11.11721  eV     1   --> A'             
     e( 95 - 95) =     11.15895  eV     1   --> A'             
     e( 96 - 96) =     11.19815  eV     1   --> A'             
     e( 97 - 97) =     11.42260  eV     1   --> A''            
     e( 98 - 98) =     11.53242  eV     1   --> A''            
     e( 99 - 99) =     11.53348  eV     1   --> A''            
     e(100 -100) =     11.88457  eV     1   --> A'             
     e(101 -101) =     11.98526  eV     1   --> A'             
     e(102 -102) =     12.11000  eV     1   --> A'             
     e(103 -103) =     12.78740  eV     1   --> A''            
     e(104 -104) =     12.87907  eV     1   --> A''            
     e(105 -105) =     12.96284  eV     1   --> A''            
     e(106 -106) =     13.03605  eV     1   --> A'             
     e(107 -107) =     13.16661  eV     1   --> A'             
     e(108 -108) =     13.51369  eV     1   --> A'             
     e(109 -109) =     14.06082  eV     1   --> A'             
     e(110 -110) =     14.16271  eV     1   --> A'             
     e(111 -111) =     14.21364  eV     1   --> A'             
     e(112 -112) =     14.97417  eV     1   --> A'             
     e(113 -113) =     14.98987  eV     1   --> A'             
     e(114 -114) =     15.01673  eV     1   --> A'             
     e(115 -115) =     15.20244  eV     1   --> A''            
     e(116 -116) =     15.22112  eV     1   --> A''            
     e(117 -117) =     15.42653  eV     1   --> A'             
     e(118 -118) =     15.48996  eV     1   --> A'             
     e(119 -119) =     15.80444  eV     1   --> A''            
     e(120 -120) =     15.92153  eV     1   --> A''            

 **************************************************************************

 **************************************************************************

                    xk=(   0.00000,   0.17863,   0.07625  )

     Band symmetry, C_s (m)     point group:

     e(  1 -  3) =    -28.39769  eV     3   -->   3 A'             
     e(  4 -  9) =    -28.39732  eV     6   -->   3 A'             
     e(  4 -  9) =    -28.39732  eV     6   -->   3 A''            
     e( 10 - 12) =    -28.39691  eV     3   -->   3 A''            
     e( 13 - 18) =    -28.34925  eV     6   -->   3 A'             
     e( 13 - 18) =    -28.34925  eV     6   -->   3 A''            
     e( 19 - 21) =    -28.34660  eV     3   -->   3 A'             
     e( 22 - 24) =    -28.34645  eV     3   -->   3 A''            
     e( 25 - 27) =    -28.33115  eV     3   -->   3 A'             
     e( 28 - 30) =    -28.32785  eV     3   -->   3 A'             
     e( 31 - 33) =     -6.70993  eV     3   -->   3 A'             
     e( 34 - 34) =     -6.54998  eV     1   --> A'             
     e( 35 - 35) =     -6.54979  eV     1   --> A'             
     e( 36 - 36) =     -6.54883  eV     1   --> A'             
     e( 37 - 38) =     -6.52223  eV     2   -->   2 A''            
     e( 39 - 39) =     -6.52205  eV     1   --> A''            
     e( 40 - 40) =     -6.42602  eV     1   --> A'             
     e( 41 - 41) =     -6.42536  eV     1   --> A'             
     e( 42 - 42) =     -6.42525  eV     1   --> A'             
     e( 43 - 45) =     -6.41868  eV     3   -->   3 A'             
     e( 46 - 48) =     -6.40299  eV     3   -->   3 A''            
     e( 49 - 51) =     -6.39023  eV     3   -->   3 A''            
     e( 52 - 52) =     -6.27237  eV     1   --> A'             
     e( 53 - 53) =     -6.27194  eV     1   --> A'             
     e( 54 - 54) =     -6.27182  eV     1   --> A'             
     e( 55 - 57) =     -6.25945  eV     3   -->   3 A''            
     e( 58 - 59) =     -6.14380  eV     2   -->   2 A'             
     e( 60 - 60) =     -6.14368  eV     1   --> A'             
     e( 61 - 61) =     -3.66454  eV     1   --> A'             
     e( 62 - 62) =     -3.66395  eV     1   --> A'             
     e( 63 - 63) =     -3.57425  eV     1   --> A'             
     e( 64 - 64) =     -3.38078  eV     1   --> A'             
     e( 65 - 65) =     -3.27080  eV     1   --> A'             
     e( 66 - 66) =     -3.27003  eV     1   --> A'             
     e( 67 - 67) =      2.15993  eV     1   --> A'             
     e( 68 - 68) =      2.17034  eV     1   --> A'             
     e( 69 - 69) =      2.42255  eV     1   --> A'             
     e( 70 - 70) =      3.94197  eV     1   --> A'             
     e( 71 - 71) =      4.26400  eV     1   --> A'             
     e( 72 - 72) =      4.31174  eV     1   --> A'             
     e( 73 - 73) =      5.50696  eV     1   --> A'             
     e( 74 - 74) =      5.51680  eV     1   --> A'             
     e( 75 - 75) =      5.62489  eV     1   --> A'             
     e( 76 - 76) =      5.84536  eV     1   --> A'             
     e( 77 - 77) =      6.22415  eV     1   --> A'             
     e( 78 - 78) =      6.30883  eV     1   --> A'             
     e( 79 - 79) =      6.52401  eV     1   --> A''            
     e( 80 - 80) =      6.54736  eV     1   --> A''            
     e( 81 - 81) =      6.64859  eV     1   --> A''            
     e( 82 - 82) =      6.79547  eV     1   --> A''            
     e( 83 - 83) =      6.91336  eV     1   --> A''            
     e( 84 - 84) =      6.94478  eV     1   --> A''            
     e( 85 - 85) =      7.38681  eV     1   --> A'             
     e( 86 - 86) =      7.40494  eV     1   --> A'             
     e( 87 - 87) =      7.93243  eV     1   --> A'             
     e( 88 - 88) =      9.66256  eV     1   --> A'             
     e( 89 - 89) =      9.69336  eV     1   --> A'             
     e( 90 - 90) =      9.85100  eV     1   --> A'             
     e( 91 - 91) =     10.17564  eV     1   --> A'             
     e( 92 - 92) =     10.21081  eV     1   --> A'             
     e( 93 - 93) =     10.21548  eV     1   --> A'             
     e( 94 - 94) =     11.23166  eV     1   --> A'             
     e( 95 - 95) =     11.29982  eV     1   --> A'             
     e( 96 - 96) =     11.30771  eV     1   --> A'             
     e( 97 - 97) =     11.46668  eV     1   --> A''            
     e( 98 - 98) =     11.57329  eV     1   --> A''            
     e( 99 - 99) =     11.59667  eV     1   --> A''            
     e(100 -100) =     11.84325  eV     1   --> A'             
     e(101 -101) =     11.93346  eV     1   --> A'             
     e(102 -102) =     12.06717  eV     1   --> A'             
     e(103 -103) =     12.89440  eV     1   --> A''            
     e(104 -104) =     12.97075  eV     1   --> A''            
     e(105 -105) =     13.07104  eV     1   --> A''            
     e(106 -106) =     13.11749  eV     1   --> A'             
     e(107 -107) =     13.24475  eV     1   --> A'             
     e(108 -108) =     13.54558  eV     1   --> A'             
     e(109 -109) =     13.97865  eV     1   --> A'             
     e(110 -110) =     14.03930  eV     1   --> A'             
     e(111 -111) =     14.16349  eV     1   --> A'             
     e(112 -112) =     14.85501  eV     1   --> A'             
     e(113 -113) =     14.92811  eV     1   --> A'             
     e(114 -114) =     14.94383  eV     1   --> A'             
     e(115 -115) =     15.23151  eV     1   --> A''            
     e(116 -116) =     15.24992  eV     1   --> A''            
     e(117 -117) =     15.39946  eV     1   --> A'             
     e(118 -118) =     15.51429  eV     1   --> A'             
     e(119 -119) =     15.78105  eV     1   --> A''            
     e(120 -120) =     15.93771  eV     1   --> A''            

 **************************************************************************

 **************************************************************************

                    xk=(   0.00000,   0.19848,   0.07625  )

     Band symmetry, C_s (m)     point group:

     e(  1 -  3) =    -28.39769  eV     3   -->   3 A'             
     e(  4 -  9) =    -28.39727  eV     6   -->   3 A'             
     e(  4 -  9) =    -28.39727  eV     6   -->   3 A''            
     e( 10 - 12) =    -28.39683  eV     3   -->   3 A''            
     e( 13 - 18) =    -28.34927  eV     6   -->   3 A'             
     e( 13 - 18) =    -28.34927  eV     6   -->   3 A''            
     e( 19 - 21) =    -28.34663  eV     3   -->   3 A'             
     e( 22 - 24) =    -28.34645  eV     3   -->   3 A''            
     e( 25 - 27) =    -28.33111  eV     3   -->   3 A'             
     e( 28 - 30) =    -28.32781  eV     3   -->   3 A'             
     e( 31 - 33) =     -6.70896  eV     3   -->   3 A'             
     e( 34 - 34) =     -6.55581  eV     1   --> A'             
     e( 35 - 35) =     -6.55558  eV     1   --> A'             
     e( 36 - 36) =     -6.55446  eV     1   --> A'             
     e( 37 - 38) =     -6.52246  eV     2   -->   2 A''            
     e( 39 - 39) =     -6.52228  eV     1   --> A''            
     e( 40 - 40) =     -6.43139  eV     1   --> A'             
     e( 41 - 41) =     -6.43060  eV     1   --> A'             
     e( 42 - 42) =     -6.43046  eV     1   --> A'             
     e( 43 - 45) =     -6.41973  eV     3   -->   3 A'             
     e( 46 - 48) =     -6.40081  eV     3   -->   3 A''            
     e( 49 - 51) =     -6.38814  eV     3   -->   3 A''            
     e( 52 - 52) =     -6.27466  eV     1   --> A'             
     e( 53 - 53) =     -6.27418  eV     1   --> A'             
     e( 54 - 54) =     -6.27404  eV     1   --> A'             
     e( 55 - 57) =     -6.25977  eV     3   -->   3 A''            
     e( 58 - 60) =     -6.14093  eV     3   -->   3 A'             
     e( 61 - 61) =     -3.61427  eV     1   --> A'             
     e( 62 - 62) =     -3.61345  eV     1   --> A'             
     e( 63 - 63) =     -3.52507  eV     1   --> A'             
     e( 64 - 64) =     -3.33393  eV     1   --> A'             
     e( 65 - 65) =     -3.22608  eV     1   --> A'             
     e( 66 - 66) =     -3.22500  eV     1   --> A'             
     e( 67 - 67) =      2.17402  eV     1   --> A'             
     e( 68 - 68) =      2.18889  eV     1   --> A'             
     e( 69 - 69) =      2.40640  eV     1   --> A'             
     e( 70 - 70) =      3.94763  eV     1   --> A'             
     e( 71 - 71) =      4.15399  eV     1   --> A'             
     e( 72 - 72) =      4.21724  eV     1   --> A'             
     e( 73 - 73) =      5.32357  eV     1   --> A'             
     e( 74 - 74) =      5.32591  eV     1   --> A'             
     e( 75 - 75) =      5.44326  eV     1   --> A'             
     e( 76 - 76) =      5.70013  eV     1   --> A'             
     e( 77 - 77) =      6.16605  eV     1   --> A'             
     e( 78 - 78) =      6.25320  eV     1   --> A'             
     e( 79 - 79) =      6.45764  eV     1   --> A''            
     e( 80 - 80) =      6.47848  eV     1   --> A''            
     e( 81 - 81) =      6.58729  eV     1   --> A''            
     e( 82 - 82) =      6.73336  eV     1   --> A''            
     e( 83 - 83) =      6.86094  eV     1   --> A''            
     e( 84 - 84) =      6.88925  eV     1   --> A''            
     e( 85 - 85) =      7.36082  eV     1   --> A'             
     e( 86 - 86) =      7.39946  eV     1   --> A'             
     e( 87 - 87) =      7.83363  eV     1   --> A'             
     e( 88 - 88) =      9.63565  eV     1   --> A'             
     e( 89 - 89) =      9.72225  eV     1   --> A'             
     e( 90 - 90) =      9.80497  eV     1   --> A'             
     e( 91 - 91) =     10.08771  eV     1   --> A'             
     e( 92 - 92) =     10.14733  eV     1   --> A'             
     e( 93 - 93) =     10.18011  eV     1   --> A'             
     e( 94 - 94) =     11.34240  eV     1   --> A'             
     e( 95 - 95) =     11.41283  eV     1   --> A'             
     e( 96 - 96) =     11.43394  eV     1   --> A'             
     e( 97 - 97) =     11.50675  eV     1   --> A''            
     e( 98 - 98) =     11.60843  eV     1   --> A''            
     e( 99 - 99) =     11.65935  eV     1   --> A''            
     e(100 -100) =     11.81172  eV     1   --> A'             
     e(101 -101) =     11.89839  eV     1   --> A'             
     e(102 -102) =     12.01675  eV     1   --> A'             
     e(103 -103) =     13.00711  eV     1   --> A''            
     e(104 -104) =     13.05806  eV     1   --> A''            
     e(105 -105) =     13.18243  eV     1   --> A''            
     e(106 -106) =     13.23113  eV     1   --> A'             
     e(107 -107) =     13.33855  eV     1   --> A'             
     e(108 -108) =     13.57595  eV     1   --> A'             
     e(109 -109) =     13.93907  eV     1   --> A'             
     e(110 -110) =     13.94445  eV     1   --> A'             
     e(111 -111) =     14.15454  eV     1   --> A'             
     e(112 -112) =     14.72705  eV     1   --> A'             
     e(113 -113) =     14.84180  eV     1   --> A'             
     e(114 -114) =     14.88467  eV     1   --> A'             
     e(115 -115) =     15.28278  eV     1   --> A''            
     e(116 -116) =     15.30139  eV     1   --> A''            
     e(117 -117) =     15.31298  eV     1   --> A'             
     e(118 -118) =     15.57693  eV     1   --> A'             
     e(119 -119) =     15.77235  eV     1   --> A''            
     e(120 -120) =     15.97096  eV     1   --> A'             

 **************************************************************************

 **************************************************************************

                    xk=(   0.00000,   0.21833,   0.07625  )

     Band symmetry, C_s (m)     point group:

     e(  1 -  3) =    -28.39768  eV     3   -->   3 A'             
     e(  4 -  9) =    -28.39726  eV     6   -->   3 A'             
     e(  4 -  9) =    -28.39726  eV     6   -->   3 A''            
     e( 10 - 12) =    -28.39674  eV     3   -->   3 A''            
     e( 13 - 18) =    -28.34929  eV     6   -->   3 A'             
     e( 13 - 18) =    -28.34929  eV     6   -->   3 A''            
     e( 19 - 21) =    -28.34666  eV     3   -->   3 A'             
     e( 22 - 24) =    -28.34645  eV     3   -->   3 A''            
     e( 25 - 27) =    -28.33106  eV     3   -->   3 A'             
     e( 28 - 30) =    -28.32776  eV     3   -->   3 A'             
     e( 31 - 33) =     -6.70794  eV     3   -->   3 A'             
     e( 34 - 34) =     -6.56188  eV     1   --> A'             
     e( 35 - 35) =     -6.56160  eV     1   --> A'             
     e( 36 - 36) =     -6.56034  eV     1   --> A'             
     e( 37 - 38) =     -6.52272  eV     2   -->   2 A''            
     e( 39 - 39) =     -6.52253  eV     1   --> A''            
     e( 40 - 40) =     -6.43702  eV     1   --> A'             
     e( 41 - 41) =     -6.43611  eV     1   --> A'             
     e( 42 - 42) =     -6.43594  eV     1   --> A'             
     e( 43 - 45) =     -6.42081  eV     3   -->   3 A'             
     e( 46 - 48) =     -6.39850  eV     3   -->   3 A''            
     e( 49 - 51) =     -6.38595  eV     3   -->   3 A''            
     e( 52 - 52) =     -6.27687  eV     1   --> A'             
     e( 53 - 53) =     -6.27637  eV     1   --> A'             
     e( 54 - 54) =     -6.27621  eV     1   --> A'             
     e( 55 - 57) =     -6.26011  eV     3   -->   3 A''            
     e( 58 - 60) =     -6.13802  eV     3   -->   3 A'             
     e( 61 - 61) =     -3.56006  eV     1   --> A'             
     e( 62 - 62) =     -3.55894  eV     1   --> A'             
     e( 63 - 63) =     -3.47210  eV     1   --> A'             
     e( 64 - 64) =     -3.28364  eV     1   --> A'             
     e( 65 - 65) =     -3.17823  eV     1   --> A'             
     e( 66 - 66) =     -3.17675  eV     1   --> A'             
     e( 67 - 67) =      2.18436  eV     1   --> A'             
     e( 68 - 68) =      2.20495  eV     1   --> A'             
     e( 69 - 69) =      2.38391  eV     1   --> A'             
     e( 70 - 70) =      3.94043  eV     1   --> A'             
     e( 71 - 71) =      4.03160  eV     1   --> A'             
     e( 72 - 72) =      4.11203  eV     1   --> A'             
     e( 73 - 73) =      5.14435  eV     1   --> A'             
     e( 74 - 74) =      5.14948  eV     1   --> A'             
     e( 75 - 75) =      5.28237  eV     1   --> A'             
     e( 76 - 76) =      5.56705  eV     1   --> A'             
     e( 77 - 77) =      6.12258  eV     1   --> A'             
     e( 78 - 78) =      6.21183  eV     1   --> A'             
     e( 79 - 79) =      6.39062  eV     1   --> A''            
     e( 80 - 80) =      6.40922  eV     1   --> A''            
     e( 81 - 81) =      6.52509  eV     1   --> A''            
     e( 82 - 82) =      6.67013  eV     1   --> A''            
     e( 83 - 83) =      6.80678  eV     1   --> A''            
     e( 84 - 84) =      6.83225  eV     1   --> A''            
     e( 85 - 85) =      7.32359  eV     1   --> A'             
     e( 86 - 86) =      7.38627  eV     1   --> A'             
     e( 87 - 87) =      7.72550  eV     1   --> A'             
     e( 88 - 88) =      9.56632  eV     1   --> A'             
     e( 89 - 89) =      9.74178  eV     1   --> A'             
     e( 90 - 90) =      9.75097  eV     1   --> A'             
     e( 91 - 91) =      9.99386  eV     1   --> A'             
     e( 92 - 92) =     10.08024  eV     1   --> A'             
     e( 93 - 93) =     10.14022  eV     1   --> A'             
     e( 94 - 94) =     11.42686  eV     1   --> A'             
     e( 95 - 95) =     11.48903  eV     1   --> A'             
     e( 96 - 96) =     11.53849  eV     1   --> A'             
     e( 97 - 97) =     11.54139  eV     1   --> A''            
     e( 98 - 98) =     11.63675  eV     1   --> A''            
     e( 99 - 99) =     11.71965  eV     1   --> A''            
     e(100 -100) =     11.79121  eV     1   --> A'             
     e(101 -101) =     11.88604  eV     1   --> A'             
     e(102 -102) =     11.96255  eV     1   --> A'             
     e(103 -103) =     13.12306  eV     1   --> A''            
     e(104 -104) =     13.13749  eV     1   --> A''            
     e(105 -105) =     13.29454  eV     1   --> A''            
     e(106 -106) =     13.37258  eV     1   --> A'             
     e(107 -107) =     13.44602  eV     1   --> A'             
     e(108 -108) =     13.61691  eV     1   --> A'             
     e(109 -109) =     13.88654  eV     1   --> A'             
     e(110 -110) =     13.94735  eV     1   --> A'             
     e(111 -111) =     14.16932  eV     1   --> A'             
     e(112 -112) =     14.62021  eV     1   --> A'             
     e(113 -113) =     14.77830  eV     1   --> A'             
     e(114 -114) =     14.81435  eV     1   --> A'             
     e(115 -115) =     15.24645  eV     1   --> A'             
     e(116 -116) =     15.35722  eV     1   --> A''            
     e(117 -117) =     15.37589  eV     1   --> A''            
     e(118 -118) =     15.61772  eV     1   --> A'             
     e(119 -119) =     15.78625  eV     1   --> A''            
     e(120 -120) =     15.90303  eV     1   --> A'             

 **************************************************************************

 **************************************************************************

                    xk=(   0.00000,   0.23818,   0.07625  )

     Band symmetry, C_s (m)     point group:

     e(  1 -  3) =    -28.39767  eV     3   -->   3 A'             
     e(  4 -  6) =    -28.39725  eV     3   -->   3 A'             
     e(  7 -  9) =    -28.39706  eV     3   -->   3 A''            
     e( 10 - 12) =    -28.39665  eV     3   -->   3 A''            
     e( 13 - 18) =    -28.34931  eV     6   -->   3 A'             
     e( 13 - 18) =    -28.34931  eV     6   -->   3 A''            
     e( 19 - 21) =    -28.34669  eV     3   -->   3 A'             
     e( 22 - 24) =    -28.34645  eV     3   -->   3 A''            
     e( 25 - 27) =    -28.33101  eV     3   -->   3 A'             
     e( 28 - 30) =    -28.32771  eV     3   -->   3 A'             
     e( 31 - 33) =     -6.70689  eV     3   -->   3 A'             
     e( 34 - 34) =     -6.56811  eV     1   --> A'             
     e( 35 - 35) =     -6.56777  eV     1   --> A'             
     e( 36 - 36) =     -6.56638  eV     1   --> A'             
     e( 37 - 38) =     -6.52300  eV     2   -->   2 A''            
     e( 39 - 39) =     -6.52280  eV     1   --> A''            
     e( 40 - 40) =     -6.44282  eV     1   --> A'             
     e( 41 - 41) =     -6.44180  eV     1   --> A'             
     e( 42 - 42) =     -6.44159  eV     1   --> A'             
     e( 43 - 45) =     -6.42191  eV     3   -->   3 A'             
     e( 46 - 48) =     -6.39609  eV     3   -->   3 A''            
     e( 49 - 51) =     -6.38367  eV     3   -->   3 A''            
     e( 52 - 52) =     -6.27900  eV     1   --> A'             
     e( 53 - 53) =     -6.27848  eV     1   --> A'             
     e( 54 - 54) =     -6.27830  eV     1   --> A'             
     e( 55 - 55) =     -6.26045  eV     1   --> A''            
     e( 56 - 57) =     -6.26035  eV     2   -->   2 A''            
     e( 58 - 60) =     -6.13512  eV     3   -->   3 A'             
     e( 61 - 61) =     -3.50234  eV     1   --> A'             
     e( 62 - 62) =     -3.50084  eV     1   --> A'             
     e( 63 - 63) =     -3.41576  eV     1   --> A'             
     e( 64 - 64) =     -3.23041  eV     1   --> A'             
     e( 65 - 65) =     -3.12776  eV     1   --> A'             
     e( 66 - 66) =     -3.12579  eV     1   --> A'             
     e( 67 - 67) =      2.18917  eV     1   --> A'             
     e( 68 - 68) =      2.21690  eV     1   --> A'             
     e( 69 - 69) =      2.35417  eV     1   --> A'             
     e( 70 - 70) =      3.89940  eV     1   --> A'             
     e( 71 - 71) =      3.91378  eV     1   --> A'             
     e( 72 - 72) =      3.99798  eV     1   --> A'             
     e( 73 - 73) =      4.97578  eV     1   --> A'             
     e( 74 - 74) =      4.98778  eV     1   --> A'             
     e( 75 - 75) =      5.14992  eV     1   --> A'             
     e( 76 - 76) =      5.44834  eV     1   --> A'             
     e( 77 - 77) =      6.09263  eV     1   --> A'             
     e( 78 - 78) =      6.18319  eV     1   --> A'             
     e( 79 - 79) =      6.32391  eV     1   --> A''            
     e( 80 - 80) =      6.34050  eV     1   --> A''            
     e( 81 - 81) =      6.46292  eV     1   --> A''            
     e( 82 - 82) =      6.60668  eV     1   --> A''            
     e( 83 - 83) =      6.75181  eV     1   --> A''            
     e( 84 - 84) =      6.77469  eV     1   --> A''            
     e( 85 - 85) =      7.27487  eV     1   --> A'             
     e( 86 - 86) =      7.36485  eV     1   --> A'             
     e( 87 - 87) =      7.60947  eV     1   --> A'             
     e( 88 - 88) =      9.49075  eV     1   --> A'             
     e( 89 - 89) =      9.66956  eV     1   --> A'             
     e( 90 - 90) =      9.75102  eV     1   --> A'             
     e( 91 - 91) =      9.89863  eV     1   --> A'             
     e( 92 - 92) =     10.01248  eV     1   --> A'             
     e( 93 - 93) =     10.10063  eV     1   --> A'             
     e( 94 - 94) =     11.47053  eV     1   --> A'             
     e( 95 - 95) =     11.51740  eV     1   --> A'             
     e( 96 - 96) =     11.56967  eV     1   --> A''            
     e( 97 - 97) =     11.59335  eV     1   --> A'             
     e( 98 - 98) =     11.65772  eV     1   --> A''            
     e( 99 - 99) =     11.77598  eV     1   --> A''            
     e(100 -100) =     11.78326  eV     1   --> A'             
     e(101 -101) =     11.90055  eV     1   --> A'             
     e(102 -102) =     11.91410  eV     1   --> A'             
     e(103 -103) =     13.20605  eV     1   --> A''            
     e(104 -104) =     13.23964  eV     1   --> A''            
     e(105 -105) =     13.40492  eV     1   --> A''            
     e(106 -106) =     13.52813  eV     1   --> A'             
     e(107 -107) =     13.56321  eV     1   --> A'             
     e(108 -108) =     13.67872  eV     1   --> A'             
     e(109 -109) =     13.87450  eV     1   --> A'             
     e(110 -110) =     14.00354  eV     1   --> A'             
     e(111 -111) =     14.18458  eV     1   --> A'             
     e(112 -112) =     14.54604  eV     1   --> A'             
     e(113 -113) =     14.74565  eV     1   --> A'             
     e(114 -114) =     14.75872  eV     1   --> A'             
     e(115 -115) =     15.20580  eV     1   --> A'             
     e(116 -116) =     15.45501  eV     1   --> A''            
     e(117 -117) =     15.47311  eV     1   --> A''            
     e(118 -118) =     15.64576  eV     1   --> A'             
     e(119 -119) =     15.81114  eV     1   --> A'             
     e(120 -120) =     15.82673  eV     1   --> A''            

 **************************************************************************

 **************************************************************************

                    xk=(   0.00000,   0.25803,   0.07625  )

     Band symmetry, C_s (m)     point group:

     e(  1 -  3) =    -28.39767  eV     3   -->   3 A'             
     e(  4 -  6) =    -28.39725  eV     3   -->   3 A'             
     e(  7 -  9) =    -28.39697  eV     3   -->   3 A''            
     e( 10 - 12) =    -28.39655  eV     3   -->   3 A''            
     e( 13 - 18) =    -28.34933  eV     6   -->   3 A'             
     e( 13 - 18) =    -28.34933  eV     6   -->   3 A''            
     e( 19 - 21) =    -28.34672  eV     3   -->   3 A'             
     e( 22 - 24) =    -28.34645  eV     3   -->   3 A''            
     e( 25 - 27) =    -28.33096  eV     3   -->   3 A'             
     e( 28 - 30) =    -28.32766  eV     3   -->   3 A'             
     e( 31 - 31) =     -6.70582  eV     1   --> A'             
     e( 32 - 33) =     -6.70572  eV     2   -->   2 A'             
     e( 34 - 34) =     -6.57440  eV     1   --> A'             
     e( 35 - 35) =     -6.57401  eV     1   --> A'             
     e( 36 - 36) =     -6.57251  eV     1   --> A'             
     e( 37 - 38) =     -6.52330  eV     2   -->   2 A''            
     e( 39 - 39) =     -6.52310  eV     1   --> A''            
     e( 40 - 40) =     -6.44870  eV     1   --> A'             
     e( 41 - 41) =     -6.44759  eV     1   --> A'             
     e( 42 - 42) =     -6.44733  eV     1   --> A'             
     e( 43 - 45) =     -6.42300  eV     3   -->   3 A'             
     e( 46 - 48) =     -6.39362  eV     3   -->   3 A''            
     e( 49 - 51) =     -6.38134  eV     3   -->   3 A''            
     e( 52 - 52) =     -6.28101  eV     1   --> A'             
     e( 53 - 53) =     -6.28049  eV     1   --> A'             
     e( 54 - 54) =     -6.28029  eV     1   --> A'             
     e( 55 - 55) =     -6.26080  eV     1   --> A''            
     e( 56 - 57) =     -6.26069  eV     2   -->   2 A''            
     e( 58 - 60) =     -6.13224  eV     3   -->   3 A'             
     e( 61 - 61) =     -3.44159  eV     1   --> A'             
     e( 62 - 62) =     -3.43961  eV     1   --> A'             
     e( 63 - 63) =     -3.35655  eV     1   --> A'             
     e( 64 - 64) =     -3.17479  eV     1   --> A'             
     e( 65 - 65) =     -3.07523  eV     1   --> A'             
     e( 66 - 66) =     -3.07265  eV     1   --> A'             
     e( 67 - 67) =      2.18661  eV     1   --> A'             
     e( 68 - 68) =      2.22291  eV     1   --> A'             
     e( 69 - 69) =      2.31658  eV     1   --> A'             
     e( 70 - 70) =      3.76028  eV     1   --> A'             
     e( 71 - 71) =      3.86161  eV     1   --> A'             
     e( 72 - 72) =      3.87709  eV     1   --> A'             
     e( 73 - 73) =      4.82401  eV     1   --> A'             
     e( 74 - 74) =      4.84156  eV     1   --> A'             
     e( 75 - 75) =      5.05282  eV     1   --> A'             
     e( 76 - 76) =      5.34580  eV     1   --> A'             
     e( 77 - 77) =      6.07439  eV     1   --> A'             
     e( 78 - 78) =      6.16507  eV     1   --> A'             
     e( 79 - 79) =      6.25834  eV     1   --> A''            
     e( 80 - 80) =      6.27313  eV     1   --> A''            
     e( 81 - 81) =      6.40163  eV     1   --> A''            
     e( 82 - 82) =      6.54389  eV     1   --> A''            
     e( 83 - 83) =      6.69690  eV     1   --> A''            
     e( 84 - 84) =      6.71740  eV     1   --> A''            
     e( 85 - 85) =      7.21480  eV     1   --> A'             
     e( 86 - 86) =      7.33473  eV     1   --> A'             
     e( 87 - 87) =      7.48716  eV     1   --> A'             
     e( 88 - 88) =      9.41281  eV     1   --> A'             
     e( 89 - 89) =      9.59442  eV     1   --> A'             
     e( 90 - 90) =      9.72691  eV     1   --> A'             
     e( 91 - 91) =      9.80561  eV     1   --> A'             
     e( 92 - 92) =      9.94595  eV     1   --> A'             
     e( 93 - 93) =     10.06320  eV     1   --> A'             
     e( 94 - 94) =     11.47416  eV     1   --> A'             
     e( 95 - 95) =     11.49952  eV     1   --> A'             
     e( 96 - 96) =     11.58821  eV     1   --> A'             
     e( 97 - 97) =     11.59121  eV     1   --> A''            
     e( 98 - 98) =     11.67138  eV     1   --> A''            
     e( 99 - 99) =     11.78217  eV     1   --> A'             
[...]
     e( 40 - 42) =     -6.50146  eV     3   --> A              
     e( 40 - 42) =     -6.50146  eV     3   --> E              
     e( 40 - 42) =     -6.50146  eV     3   --> E*             
     e( 43 - 45) =     -6.41621  eV     3   --> A              
     e( 43 - 45) =     -6.41621  eV     3   --> E              
     e( 43 - 45) =     -6.41621  eV     3   --> E*             
     e( 46 - 48) =     -6.38478  eV     3   --> A              
     e( 46 - 48) =     -6.38478  eV     3   --> E              
     e( 46 - 48) =     -6.38478  eV     3   --> E*             
     e( 49 - 51) =     -6.36642  eV     3   --> A              
     e( 49 - 51) =     -6.36642  eV     3   --> E              
     e( 49 - 51) =     -6.36642  eV     3   --> E*             
     e( 52 - 54) =     -6.27927  eV     3   --> A              
     e( 52 - 54) =     -6.27927  eV     3   --> E              
     e( 52 - 54) =     -6.27927  eV     3   --> E*             
     e( 55 - 57) =     -6.27855  eV     3   --> A              
     e( 55 - 57) =     -6.27855  eV     3   --> E              
     e( 55 - 57) =     -6.27855  eV     3   --> E*             
     e( 58 - 60) =     -6.10599  eV     3   --> A              
     e( 58 - 60) =     -6.10599  eV     3   --> E              
     e( 58 - 60) =     -6.10599  eV     3   --> E*             
     e( 61 - 63) =     -2.50551  eV     3   --> A              
     e( 61 - 63) =     -2.50551  eV     3   --> E              
     e( 61 - 63) =     -2.50551  eV     3   --> E*             
     e( 64 - 66) =     -2.44965  eV     3   --> A              
     e( 64 - 66) =     -2.44965  eV     3   --> E              
     e( 64 - 66) =     -2.44965  eV     3   --> E*             
     e( 67 - 67) =      1.72676  eV     1   --> E              
     e( 68 - 69) =      1.72688  eV     2   --> A              
     e( 68 - 69) =      1.72688  eV     2   --> E*             
     e( 70 - 72) =      2.62505  eV     3   --> A              
     e( 70 - 72) =      2.62505  eV     3   --> E              
     e( 70 - 72) =      2.62505  eV     3   --> E*             
     e( 73 - 73) =      4.29619  eV     1   -->   ?
     e( 74 - 75) =      4.29629  eV     2   -->   ?
     e( 76 - 78) =      4.60322  eV     3   --> A              
     e( 76 - 78) =      4.60322  eV     3   --> E              
     e( 76 - 78) =      4.60322  eV     3   --> E*             
     e( 79 - 79) =      5.54343  eV     1   -->   ?
     e( 80 - 81) =      5.54355  eV     2   -->   ?
     e( 82 - 84) =      5.98006  eV     3   --> A              
     e( 82 - 84) =      5.98006  eV     3   --> E              
     e( 82 - 84) =      5.98006  eV     3   --> E*             
     e( 85 - 87) =      6.37475  eV     3   --> A              
     e( 85 - 87) =      6.37475  eV     3   --> E              
     e( 85 - 87) =      6.37475  eV     3   --> E*             
     e( 88 - 90) =      9.45201  eV     3   --> A              
     e( 88 - 90) =      9.45201  eV     3   --> E              
     e( 88 - 90) =      9.45201  eV     3   --> E*             
     e( 91 - 92) =      9.96002  eV     2   -->   ?
     e( 93 - 93) =      9.96021  eV     1   -->   ?
     e( 94 - 96) =     11.17659  eV     3   --> A              
     e( 94 - 96) =     11.17659  eV     3   --> E              
     e( 94 - 96) =     11.17659  eV     3   --> E*             
     e( 97 - 98) =     11.98901  eV     2   -->   ?
     e( 99 - 99) =     11.98922  eV     1   -->   ?
     e(100 -102) =     12.91730  eV     3   --> A              
     e(100 -102) =     12.91730  eV     3   --> E              
     e(100 -102) =     12.91730  eV     3   --> E*             
     e(103 -105) =     14.01285  eV     3   --> A              
     e(103 -105) =     14.01285  eV     3   --> E              
     e(103 -105) =     14.01285  eV     3   --> E*             
     e(106 -108) =     14.22126  eV     3   --> A              
     e(106 -108) =     14.22126  eV     3   --> E              
     e(106 -108) =     14.22126  eV     3   --> E*             
     e(109 -111) =     14.85421  eV     3   --> A              
     e(109 -111) =     14.85421  eV     3   --> E              
     e(109 -111) =     14.85421  eV     3   --> E*             
     e(112 -114) =     15.12571  eV     3   --> A              
     e(112 -114) =     15.12571  eV     3   --> E              
     e(112 -114) =     15.12571  eV     3   --> E*             
     e(115 -117) =     15.55545  eV     3   --> A              
     e(115 -117) =     15.55545  eV     3   --> E              
     e(115 -117) =     15.55545  eV     3   --> E*             
     e(118 -120) =     15.76664  eV     3   --> A              
     e(118 -120) =     15.76664  eV     3   --> E              
     e(118 -120) =     15.76664  eV     3   --> E*             

 **************************************************************************

 **************************************************************************

                    xk=(   0.30940,   0.53590,   0.01906  )

     Band symmetry, C_3 (3)     point group:

     e(  1 -  3) =    -28.39683  eV     3   --> A              
     e(  1 -  3) =    -28.39683  eV     3   --> E              
     e(  1 -  3) =    -28.39683  eV     3   --> E*             
     e(  4 -  6) =    -28.39669  eV     3   --> A              
     e(  4 -  6) =    -28.39669  eV     3   --> E              
     e(  4 -  6) =    -28.39669  eV     3   --> E*             
     e(  7 - 12) =    -28.39640  eV     6   -->   2 A              
     e(  7 - 12) =    -28.39640  eV     6   -->   2 E              
     e(  7 - 12) =    -28.39640  eV     6   -->   2 E*             
     e( 13 - 15) =    -28.34957  eV     3   --> A              
     e( 13 - 15) =    -28.34957  eV     3   --> E              
     e( 13 - 15) =    -28.34957  eV     3   --> E*             
     e( 16 - 18) =    -28.34931  eV     3   --> A              
     e( 16 - 18) =    -28.34931  eV     3   --> E              
     e( 16 - 18) =    -28.34931  eV     3   --> E*             
     e( 19 - 21) =    -28.34691  eV     3   --> A              
     e( 19 - 21) =    -28.34691  eV     3   --> E              
     e( 19 - 21) =    -28.34691  eV     3   --> E*             
     e( 22 - 24) =    -28.34660  eV     3   --> A              
     e( 22 - 24) =    -28.34660  eV     3   --> E              
     e( 22 - 24) =    -28.34660  eV     3   --> E*             
     e( 25 - 27) =    -28.33041  eV     3   --> A              
     e( 25 - 27) =    -28.33041  eV     3   --> E              
     e( 25 - 27) =    -28.33041  eV     3   --> E*             
     e( 28 - 30) =    -28.32711  eV     3   --> A              
     e( 28 - 30) =    -28.32711  eV     3   --> E              
     e( 28 - 30) =    -28.32711  eV     3   --> E*             
     e( 31 - 33) =     -6.69000  eV     3   --> A              
     e( 31 - 33) =     -6.69000  eV     3   --> E              
     e( 31 - 33) =     -6.69000  eV     3   --> E*             
     e( 34 - 36) =     -6.63165  eV     3   --> A              
     e( 34 - 36) =     -6.63165  eV     3   --> E              
     e( 34 - 36) =     -6.63165  eV     3   --> E*             
     e( 37 - 39) =     -6.53866  eV     3   --> A              
     e( 37 - 39) =     -6.53866  eV     3   --> E              
     e( 37 - 39) =     -6.53866  eV     3   --> E*             
     e( 40 - 42) =     -6.50146  eV     3   --> A              
     e( 40 - 42) =     -6.50146  eV     3   --> E              
     e( 40 - 42) =     -6.50146  eV     3   --> E*             
     e( 43 - 45) =     -6.41621  eV     3   --> A              
     e( 43 - 45) =     -6.41621  eV     3   --> E              
     e( 43 - 45) =     -6.41621  eV     3   --> E*             
     e( 46 - 48) =     -6.38478  eV     3   --> A              
     e( 46 - 48) =     -6.38478  eV     3   --> E              
     e( 46 - 48) =     -6.38478  eV     3   --> E*             
     e( 49 - 51) =     -6.36642  eV     3   --> A              
     e( 49 - 51) =     -6.36642  eV     3   --> E              
     e( 49 - 51) =     -6.36642  eV     3   --> E*             
     e( 52 - 54) =     -6.27927  eV     3   --> A              
     e( 52 - 54) =     -6.27927  eV     3   --> E              
     e( 52 - 54) =     -6.27927  eV     3   --> E*             
     e( 55 - 57) =     -6.27855  eV     3   --> A              
     e( 55 - 57) =     -6.27855  eV     3   --> E              
     e( 55 - 57) =     -6.27855  eV     3   --> E*             
     e( 58 - 60) =     -6.10599  eV     3   --> A              
     e( 58 - 60) =     -6.10599  eV     3   --> E              
     e( 58 - 60) =     -6.10599  eV     3   --> E*             
     e( 61 - 63) =     -2.50551  eV     3   --> A              
     e( 61 - 63) =     -2.50551  eV     3   --> E              
     e( 61 - 63) =     -2.50551  eV     3   --> E*             
     e( 64 - 66) =     -2.44965  eV     3   --> A              
     e( 64 - 66) =     -2.44965  eV     3   --> E              
     e( 64 - 66) =     -2.44965  eV     3   --> E*             
     e( 67 - 67) =      1.72676  eV     1   --> E              
     e( 68 - 69) =      1.72688  eV     2   --> A              
     e( 68 - 69) =      1.72688  eV     2   --> E*             
     e( 70 - 72) =      2.62505  eV     3   --> A              
     e( 70 - 72) =      2.62505  eV     3   --> E              
     e( 70 - 72) =      2.62505  eV     3   --> E*             
     e( 73 - 73) =      4.29574  eV     1   -->   ?
     e( 74 - 75) =      4.29585  eV     2   -->   ?
     e( 76 - 78) =      4.60428  eV     3   --> A              
     e( 76 - 78) =      4.60428  eV     3   --> E              
     e( 76 - 78) =      4.60428  eV     3   --> E*             
     e( 79 - 79) =      5.53877  eV     1   -->   ?
     e( 80 - 81) =      5.53890  eV     2   -->   ?
     e( 82 - 84) =      5.98930  eV     3   --> A              
     e( 82 - 84) =      5.98930  eV     3   --> E              
     e( 82 - 84) =      5.98930  eV     3   --> E*             
     e( 85 - 87) =      6.36897  eV     3   --> A              
     e( 85 - 87) =      6.36897  eV     3   --> E              
     e( 85 - 87) =      6.36897  eV     3   --> E*             
     e( 88 - 90) =      9.47152  eV     3   --> A              
     e( 88 - 90) =      9.47152  eV     3   --> E              
     e( 88 - 90) =      9.47152  eV     3   --> E*             
     e( 91 - 92) =      9.92419  eV     2   -->   ?
     e( 93 - 93) =      9.92438  eV     1   -->   ?
     e( 94 - 96) =     11.23162  eV     3   --> A              
     e( 94 - 96) =     11.23162  eV     3   --> E              
     e( 94 - 96) =     11.23162  eV     3   --> E*             
     e( 97 - 98) =     11.93100  eV     2   -->   ?
     e( 99 - 99) =     11.93121  eV     1   -->   ?
     e(100 -102) =     12.93422  eV     3   --> A              
     e(100 -102) =     12.93422  eV     3   --> E              
     e(100 -102) =     12.93422  eV     3   --> E*             
     e(103 -105) =     13.99850  eV     3   --> A              
     e(103 -105) =     13.99850  eV     3   --> E              
     e(103 -105) =     13.99850  eV     3   --> E*             
     e(106 -108) =     14.27381  eV     3   --> A              
     e(106 -108) =     14.27381  eV     3   --> E              
     e(106 -108) =     14.27381  eV     3   --> E*             
     e(109 -111) =     14.80957  eV     3   --> A              
     e(109 -111) =     14.80957  eV     3   --> E              
     e(109 -111) =     14.80957  eV     3   --> E*             
     e(112 -114) =     15.14602  eV     3   --> A              
     e(112 -114) =     15.14602  eV     3   --> E              
     e(112 -114) =     15.14602  eV     3   --> E*             
     e(115 -117) =     15.51896  eV     3   --> A              
     e(115 -117) =     15.51896  eV     3   --> E              
     e(115 -117) =     15.51896  eV     3   --> E*             
     e(118 -120) =     15.79438  eV     3   --> A              
     e(118 -120) =     15.79438  eV     3   --> E              
     e(118 -120) =     15.79438  eV     3   --> E*             

 **************************************************************************

 **************************************************************************

                    xk=(   0.30940,   0.53590,  -0.00000  )

     Band symmetry, C_3 (3)     point group:

     e(  1 -  3) =    -28.39683  eV     3   --> A              
     e(  1 -  3) =    -28.39683  eV     3   --> E              
     e(  1 -  3) =    -28.39683  eV     3   --> E*             
     e(  4 -  6) =    -28.39669  eV     3   --> A              
     e(  4 -  6) =    -28.39669  eV     3   --> E              
     e(  4 -  6) =    -28.39669  eV     3   --> E*             
     e(  7 - 12) =    -28.39640  eV     6   -->   2 A              
     e(  7 - 12) =    -28.39640  eV     6   -->   2 E              
     e(  7 - 12) =    -28.39640  eV     6   -->   2 E*             
     e( 13 - 15) =    -28.34957  eV     3   --> A              
     e( 13 - 15) =    -28.34957  eV     3   --> E              
     e( 13 - 15) =    -28.34957  eV     3   --> E*             
     e( 16 - 18) =    -28.34931  eV     3   --> A              
     e( 16 - 18) =    -28.34931  eV     3   --> E              
     e( 16 - 18) =    -28.34931  eV     3   --> E*             
     e( 19 - 21) =    -28.34691  eV     3   --> A              
     e( 19 - 21) =    -28.34691  eV     3   --> E              
     e( 19 - 21) =    -28.34691  eV     3   --> E*             
     e( 22 - 24) =    -28.34660  eV     3   --> A              
     e( 22 - 24) =    -28.34660  eV     3   --> E              
     e( 22 - 24) =    -28.34660  eV     3   --> E*             
     e( 25 - 27) =    -28.33041  eV     3   --> A              
     e( 25 - 27) =    -28.33041  eV     3   --> E              
     e( 25 - 27) =    -28.33041  eV     3   --> E*             
     e( 28 - 30) =    -28.32711  eV     3   --> A              
     e( 28 - 30) =    -28.32711  eV     3   --> E              
     e( 28 - 30) =    -28.32711  eV     3   --> E*             
     e( 31 - 33) =     -6.69000  eV     3   --> A              
     e( 31 - 33) =     -6.69000  eV     3   --> E              
     e( 31 - 33) =     -6.69000  eV     3   --> E*             
     e( 34 - 36) =     -6.63165  eV     3   --> A              
     e( 34 - 36) =     -6.63165  eV     3   --> E              
     e( 34 - 36) =     -6.63165  eV     3   --> E*             
     e( 37 - 39) =     -6.53866  eV     3   --> A              
     e( 37 - 39) =     -6.53866  eV     3   --> E              
     e( 37 - 39) =     -6.53866  eV     3   --> E*             
     e( 40 - 42) =     -6.50146  eV     3   --> A              
     e( 40 - 42) =     -6.50146  eV     3   --> E              
     e( 40 - 42) =     -6.50146  eV     3   --> E*             
     e( 43 - 45) =     -6.41621  eV     3   --> A              
     e( 43 - 45) =     -6.41621  eV     3   --> E              
     e( 43 - 45) =     -6.41621  eV     3   --> E*             
     e( 46 - 48) =     -6.38478  eV     3   --> A              
     e( 46 - 48) =     -6.38478  eV     3   --> E              
     e( 46 - 48) =     -6.38478  eV     3   --> E*             
     e( 49 - 51) =     -6.36642  eV     3   --> A              
     e( 49 - 51) =     -6.36642  eV     3   --> E              
     e( 49 - 51) =     -6.36642  eV     3   --> E*             
     e( 52 - 54) =     -6.27927  eV     3   --> A              
     e( 52 - 54) =     -6.27927  eV     3   --> E              
     e( 52 - 54) =     -6.27927  eV     3   --> E*             
     e( 55 - 57) =     -6.27855  eV     3   --> A              
     e( 55 - 57) =     -6.27855  eV     3   --> E              
     e( 55 - 57) =     -6.27855  eV     3   --> E*             
     e( 58 - 60) =     -6.10599  eV     3   --> A              
     e( 58 - 60) =     -6.10599  eV     3   --> E              
     e( 58 - 60) =     -6.10599  eV     3   --> E*             
     e( 61 - 63) =     -2.50551  eV     3   --> A              
     e( 61 - 63) =     -2.50551  eV     3   --> E              
     e( 61 - 63) =     -2.50551  eV     3   --> E*             
     e( 64 - 66) =     -2.44965  eV     3   --> A              
     e( 64 - 66) =     -2.44965  eV     3   --> E              
     e( 64 - 66) =     -2.44965  eV     3   --> E*             
     e( 67 - 67) =      1.72676  eV     1   --> E              
     e( 68 - 69) =      1.72688  eV     2   --> A              
     e( 68 - 69) =      1.72688  eV     2   --> E*             
     e( 70 - 72) =      2.62505  eV     3   --> A              
     e( 70 - 72) =      2.62505  eV     3   --> E              
     e( 70 - 72) =      2.62505  eV     3   --> E*             
     e( 73 - 73) =      4.29556  eV     1   -->   ?
     e( 74 - 75) =      4.29566  eV     2   -->   ?
     e( 76 - 78) =      4.60471  eV     3   --> A              
     e( 76 - 78) =      4.60471  eV     3   --> E              
     e( 76 - 78) =      4.60471  eV     3   --> E*             
     e( 79 - 79) =      5.53688  eV     1   -->   ?
     e( 80 - 81) =      5.53701  eV     2   -->   ?
     e( 82 - 84) =      5.99316  eV     3   --> A              
     e( 82 - 84) =      5.99316  eV     3   --> E              
     e( 82 - 84) =      5.99316  eV     3   --> E*             
     e( 85 - 87) =      6.36651  eV     3   --> A              
     e( 85 - 87) =      6.36651  eV     3   --> E              
     e( 85 - 87) =      6.36651  eV     3   --> E*             
     e( 88 - 90) =      9.48036  eV     3   --> A              
     e( 88 - 90) =      9.48036  eV     3   --> E              
     e( 88 - 90) =      9.48036  eV     3   --> E*             
     e( 91 - 92) =      9.90886  eV     2   -->   ?
     e( 93 - 93) =      9.90906  eV     1   -->   ?
     e( 94 - 95) =     11.25623  eV     2   -->   ?
     e( 96 - 96) =     11.25636  eV     1   -->   ?
     e( 97 - 98) =     11.90524  eV     2   -->   ?
     e( 99 - 99) =     11.90546  eV     1   -->   ?
     e(100 -102) =     12.94084  eV     3   --> A              
     e(100 -102) =     12.94084  eV     3   --> E              
     e(100 -102) =     12.94084  eV     3   --> E*             
     e(103 -105) =     13.99372  eV     3   --> A              
     e(103 -105) =     13.99372  eV     3   --> E              
     e(103 -105) =     13.99372  eV     3   --> E*             
     e(106 -108) =     14.29635  eV     3   --> A              
     e(106 -108) =     14.29635  eV     3   --> E              
     e(106 -108) =     14.29635  eV     3   --> E*             
     e(109 -111) =     14.78983  eV     3   --> A              
     e(109 -111) =     14.78983  eV     3   --> E              
     e(109 -111) =     14.78983  eV     3   --> E*             
     e(112 -114) =     15.15402  eV     3   --> A              
     e(112 -114) =     15.15402  eV     3   --> E              
     e(112 -114) =     15.15402  eV     3   --> E*             
     e(115 -117) =     15.50519  eV     3   --> A              
     e(115 -117) =     15.50519  eV     3   --> E              
     e(115 -117) =     15.50519  eV     3   --> E*             
     e(118 -120) =     15.80435  eV     3   --> A              
     e(118 -120) =     15.80435  eV     3   --> E              
     e(118 -120) =     15.80435  eV     3   --> E*             

 **************************************************************************
 
     BANDS        :  5m20.25s CPU     5m37.25s WALL

 
   This run was terminated on:  13:47:38  29Sep2021            

=------------------------------------------------------------------------------=
   JOB DONE.
=------------------------------------------------------------------------------=
