
     Program BANDS v.6.1 (svn rev. 13369) starts on 29Sep2021 at 13: 9: 0 

     This program is part of the open-source Quantum ESPRESSO suite
     for quantum simulation of materials; please cite
         "P. Giannozzi et al., J. Phys.:Condens. Matter 21 395502 (2009);
          URL http://www.quantum-espresso.org", 
     in publications or presentations arising from this work. More details at
     http://www.quantum-espresso.org/quote

     Parallel version (MPI), running on    48 processors
     R & G space division:  proc/nbgrp/npool/nimage =      48

     Reading data from directory:
     /share/inl/marcel/TB/GaTegamma_outdir/GaTegamma.save

   Info: using nr1, nr2, nr3 values from input

   Info: using nr1, nr2, nr3 values from input

     IMPORTANT: XC functional enforced from input :
     Exchange-correlation      = SLA+PW+PSX+PSC ( 1  4 10  8 0 0)
     Any further DFT definition will be discarded
     Please, verify this is what you really want

 
     Parallelization info
     --------------------
     sticks:   dense  smooth     PW     G-vecs:    dense   smooth      PW
     Min          50      50     14                12578    12578    1784
     Max          51      51     15                12617    12617    1810
     Sum        2431    2431    673               604409   604409   86317
 
     high-symmetry point:  0.0000 0.0000 0.0772   x coordinate   0.0000
     high-symmetry point:  0.0000 0.5526 0.0772   x coordinate   0.5526
     high-symmetry point:  0.3190 0.5526 0.0772   x coordinate   0.8716
     high-symmetry point:  0.0000 0.0000 0.0772   x coordinate   1.5097
     high-symmetry point:  0.0000 0.0000 0.0000   x coordinate   1.5870
     high-symmetry point:  0.0000 0.5526-0.0000   x coordinate   2.1396
     high-symmetry point:  0.3190 0.5526-0.0000   x coordinate   2.4586
     high-symmetry point:  0.0000 0.0000 0.0000   x coordinate   3.0967
     high-symmetry point:  0.0000 0.5526 0.0772   x coordinate   3.0967
     high-symmetry point:  0.0000 0.5526-0.0000   x coordinate   3.1739
     high-symmetry point:  0.3190 0.5526 0.0772   x coordinate   3.1739
     high-symmetry point:  0.3190 0.5526-0.0000   x coordinate   3.2512

     Plottable bands (eV) written to file GaTegamma.bands.dat.gnu
     Bands written to file GaTegamma.bands.dat

 **************************************************************************

                    xk=(   0.00000,   0.00000,   0.07724  )

     point group C_3v (3m)  
     there are  3 classes
     the character table:

       E     2C3   3s_v 
A_1    1.00  1.00  1.00
A_2    1.00  1.00 -1.00
E      2.00 -1.00  0.00

     the symmetry operations in each class and the name of the first element:

     E        1
                                                                 
     2C3      2    3
                                                                 
     3s_v     4    5    6
                                                                 

     Band symmetry, C_3v (3m)   point group:

     e(  1 -  2) =    -28.43872  eV     2   --> E    L_3       
     e(  3 -  4) =    -28.43820  eV     2   --> E    L_3       
     e(  5 -  6) =    -28.43789  eV     2   --> E    L_3       
     e(  7 -  8) =    -28.43469  eV     2   --> E    L_3       
     e(  9 - 12) =    -28.43418  eV     4   -->   2 E    L_3       
     e( 13 - 14) =    -28.37361  eV     2   --> E    L_3       
     e( 15 - 16) =    -28.37314  eV     2   --> E    L_3       
     e( 17 - 18) =    -28.37279  eV     2   --> E    L_3       
     e( 19 - 20) =    -28.36769  eV     2   --> E    L_3       
     e( 21 - 24) =    -28.36726  eV     4   -->   2 E    L_3       
     e( 25 - 25) =    -28.35201  eV     1   --> A_1  L_1       
     e( 26 - 26) =    -28.35156  eV     1   --> A_1  L_1       
     e( 27 - 27) =    -28.35120  eV     1   --> A_1  L_1       
     e( 28 - 28) =    -28.34559  eV     1   --> A_1  L_1       
     e( 29 - 30) =    -28.34518  eV     2   -->   2 A_1  L_1       
     e( 31 - 31) =     -6.81098  eV     1   --> A_1  L_1       
     e( 32 - 32) =     -6.81073  eV     1   --> A_1  L_1       
     e( 33 - 33) =     -6.81037  eV     1   --> A_1  L_1       
     e( 34 - 35) =     -6.67301  eV     2   --> E    L_3       
     e( 36 - 37) =     -6.67276  eV     2   --> E    L_3       
     e( 38 - 39) =     -6.67245  eV     2   --> E    L_3       
     e( 40 - 41) =     -6.59844  eV     2   --> E    L_3       
     e( 42 - 43) =     -6.59819  eV     2   --> E    L_3       
     e( 44 - 45) =     -6.59790  eV     2   --> E    L_3       
     e( 46 - 47) =     -6.57912  eV     2   --> E    L_3       
     e( 48 - 49) =     -6.57886  eV     2   --> E    L_3       
     e( 50 - 51) =     -6.57858  eV     2   --> E    L_3       
     e( 52 - 53) =     -6.46577  eV     2   --> E    L_3       
     e( 54 - 55) =     -6.46556  eV     2   --> E    L_3       
     e( 56 - 57) =     -6.46527  eV     2   --> E    L_3       
     e( 58 - 58) =     -6.40010  eV     1   --> A_1  L_1       
     e( 59 - 59) =     -6.39985  eV     1   --> A_1  L_1       
     e( 60 - 60) =     -6.39958  eV     1   --> A_1  L_1       
     e( 61 - 61) =     -4.35957  eV     1   --> A_1  L_1       
     e( 62 - 62) =     -4.35836  eV     1   --> A_1  L_1       
     e( 63 - 63) =     -4.17947  eV     1   --> A_1  L_1       
     e( 64 - 64) =     -4.16131  eV     1   --> A_1  L_1       
     e( 65 - 65) =     -3.95352  eV     1   --> A_1  L_1       
     e( 66 - 66) =     -3.95319  eV     1   --> A_1  L_1       
     e( 67 - 67) =      1.56429  eV     1   --> A_1  L_1       
     e( 68 - 68) =      1.56532  eV     1   --> A_1  L_1       
     e( 69 - 69) =      1.95250  eV     1   --> A_1  L_1       
     e( 70 - 70) =      3.70510  eV     1   --> A_1  L_1       
     e( 71 - 71) =      4.58443  eV     1   --> A_1  L_1       
     e( 72 - 72) =      4.58640  eV     1   --> A_1  L_1       
     e( 73 - 74) =      7.07239  eV     2   --> E    L_3       
     e( 75 - 75) =      7.13045  eV     1   --> A_1  L_1       
     e( 76 - 76) =      7.13144  eV     1   --> A_1  L_1       
     e( 77 - 78) =      7.14261  eV     2   --> E    L_3       
     e( 79 - 80) =      7.14292  eV     2   --> E    L_3       
     e( 81 - 82) =      7.32678  eV     2   --> E    L_3       
     e( 83 - 84) =      7.32753  eV     2   --> E    L_3       
     e( 85 - 86) =      7.41156  eV     2   --> E    L_3       
     e( 87 - 87) =      8.47366  eV     1   --> A_1  L_1       
     e( 88 - 88) =      9.03811  eV     1   --> A_1  L_1       
     e( 89 - 89) =      9.78155  eV     1   --> A_1  L_1       
     e( 90 - 90) =      9.78245  eV     1   --> A_1  L_1       
     e( 91 - 91) =      9.83151  eV     1   --> A_1  L_1       
     e( 92 - 92) =      9.90150  eV     1   --> A_1  L_1       
     e( 93 - 93) =      9.90176  eV     1   --> A_1  L_1       
     e( 94 - 95) =     11.09540  eV     2   --> E    L_3       
     e( 96 - 97) =     11.15619  eV     2   --> E    L_3       
     e( 98 - 99) =     11.15654  eV     2   --> E    L_3       
     e(100 -101) =     12.47004  eV     2   --> E    L_3       
     e(102 -103) =     12.47071  eV     2   --> E    L_3       
     e(104 -105) =     12.54561  eV     2   --> E    L_3       
     e(106 -106) =     13.80018  eV     1   --> A_1  L_1       
     e(107 -107) =     13.80504  eV     1   --> A_1  L_1       
     e(108 -108) =     13.80704  eV     1   --> A_1  L_1       
     e(109 -109) =     14.66496  eV     1   --> A_1  L_1       
     e(110 -110) =     14.66587  eV     1   --> A_1  L_1       
     e(111 -111) =     14.85632  eV     1   --> A_1  L_1       
     e(112 -112) =     15.70490  eV     1   --> A_1  L_1       
     e(113 -113) =     15.70674  eV     1   --> A_1  L_1       
     e(114 -115) =     15.87204  eV     2   --> E    L_3       
     e(116 -116) =     15.88046  eV     1   --> A_1  L_1       
     e(117 -118) =     16.07778  eV     2   --> E    L_3       
     e(119 -120) =     16.07831  eV     2   --> E    L_3       

 **************************************************************************

 **************************************************************************

                    xk=(   0.00000,   0.02047,   0.07724  )

     point group C_s (m)    
     there are  2 classes
     the character table:

       E     s    
A'     1.00  1.00
A''    1.00 -1.00

     the symmetry operations in each class and the name of the first element:

     E        1
                                                                 
     s        2
                                                                 

     Band symmetry, C_s (m)     point group:

     e(  1 -  2) =    -28.43872  eV     2   --> A'             
     e(  1 -  2) =    -28.43872  eV     2   --> A''            
     e(  3 -  4) =    -28.43820  eV     2   --> A'             
     e(  3 -  4) =    -28.43820  eV     2   --> A''            
     e(  5 -  6) =    -28.43789  eV     2   --> A'             
     e(  5 -  6) =    -28.43789  eV     2   --> A''            
     e(  7 -  8) =    -28.43469  eV     2   --> A'             
     e(  7 -  8) =    -28.43469  eV     2   --> A''            
     e(  9 - 12) =    -28.43418  eV     4   -->   2 A'             
     e(  9 - 12) =    -28.43418  eV     4   -->   2 A''            
     e( 13 - 14) =    -28.37361  eV     2   --> A'             
     e( 13 - 14) =    -28.37361  eV     2   --> A''            
     e( 15 - 16) =    -28.37314  eV     2   --> A'             
     e( 15 - 16) =    -28.37314  eV     2   --> A''            
     e( 17 - 18) =    -28.37280  eV     2   --> A'             
     e( 17 - 18) =    -28.37280  eV     2   --> A''            
     e( 19 - 20) =    -28.36770  eV     2   --> A'             
     e( 19 - 20) =    -28.36770  eV     2   --> A''            
     e( 21 - 24) =    -28.36727  eV     4   -->   2 A'             
     e( 21 - 24) =    -28.36727  eV     4   -->   2 A''            
     e( 25 - 25) =    -28.35201  eV     1   --> A'             
     e( 26 - 26) =    -28.35155  eV     1   --> A'             
     e( 27 - 27) =    -28.35120  eV     1   --> A'             
     e( 28 - 28) =    -28.34558  eV     1   --> A'             
     e( 29 - 30) =    -28.34517  eV     2   -->   2 A'             
     e( 31 - 31) =     -6.81094  eV     1   --> A'             
     e( 32 - 32) =     -6.81069  eV     1   --> A'             
     e( 33 - 33) =     -6.81034  eV     1   --> A'             
     e( 34 - 34) =     -6.67326  eV     1   --> A'             
     e( 35 - 36) =     -6.67302  eV     2   --> A'             
     e( 35 - 36) =     -6.67302  eV     2   --> A''            
     e( 37 - 38) =     -6.67277  eV     2   --> A'             
     e( 37 - 38) =     -6.67277  eV     2   --> A''            
     e( 39 - 39) =     -6.67246  eV     1   --> A''            
     e( 40 - 40) =     -6.59850  eV     1   --> A'             
     e( 41 - 41) =     -6.59836  eV     1   --> A''            
     e( 42 - 42) =     -6.59825  eV     1   --> A'             
     e( 43 - 43) =     -6.59811  eV     1   --> A''            
     e( 44 - 44) =     -6.59796  eV     1   --> A'             
     e( 45 - 45) =     -6.59782  eV     1   --> A''            
     e( 46 - 46) =     -6.57933  eV     1   --> A'             
     e( 47 - 48) =     -6.57907  eV     2   --> A'             
     e( 47 - 48) =     -6.57907  eV     2   --> A''            
     e( 49 - 50) =     -6.57879  eV     2   --> A'             
     e( 49 - 50) =     -6.57879  eV     2   --> A''            
     e( 51 - 51) =     -6.57850  eV     1   --> A''            
     e( 52 - 52) =     -6.46596  eV     1   --> A'             
     e( 53 - 54) =     -6.46579  eV     2   --> A'             
     e( 53 - 54) =     -6.46579  eV     2   --> A''            
     e( 55 - 55) =     -6.46557  eV     1   --> A''            
     e( 56 - 56) =     -6.46547  eV     1   --> A'             
     e( 57 - 57) =     -6.46529  eV     1   --> A''            
     e( 58 - 58) =     -6.39990  eV     1   --> A'             
     e( 59 - 59) =     -6.39966  eV     1   --> A'             
     e( 60 - 60) =     -6.39939  eV     1   --> A'             
     e( 61 - 61) =     -4.35616  eV     1   --> A'             
     e( 62 - 62) =     -4.35496  eV     1   --> A'             
     e( 63 - 63) =     -4.17613  eV     1   --> A'             
     e( 64 - 64) =     -4.15802  eV     1   --> A'             
     e( 65 - 65) =     -3.95032  eV     1   --> A'             
     e( 66 - 66) =     -3.94999  eV     1   --> A'             
     e( 67 - 67) =      1.56591  eV     1   --> A'             
     e( 68 - 68) =      1.56694  eV     1   --> A'             
     e( 69 - 69) =      1.95289  eV     1   --> A'             
     e( 70 - 70) =      3.70721  eV     1   --> A'             
     e( 71 - 71) =      4.58222  eV     1   --> A'             
     e( 72 - 72) =      4.58417  eV     1   --> A'             
     e( 73 - 73) =      7.04018  eV     1   --> A'             
     e( 74 - 74) =      7.04146  eV     1   --> A'             
     e( 75 - 75) =      7.04507  eV     1   --> A'             
     e( 76 - 76) =      7.06506  eV     1   --> A''            
     e( 77 - 77) =      7.12688  eV     1   --> A''            
     e( 78 - 78) =      7.13948  eV     1   --> A'             
     e( 79 - 79) =      7.14457  eV     1   --> A''            
     e( 80 - 80) =      7.14892  eV     1   --> A'             
     e( 81 - 81) =      7.31106  eV     1   --> A''            
     e( 82 - 82) =      7.33078  eV     1   --> A''            
     e( 83 - 83) =      7.34781  eV     1   --> A'             
     e( 84 - 84) =      7.36026  eV     1   --> A'             
     e( 85 - 85) =      7.36263  eV     1   --> A'             
     e( 86 - 86) =      7.40566  eV     1   --> A''            
     e( 87 - 87) =      8.46869  eV     1   --> A'             
     e( 88 - 88) =      9.08425  eV     1   --> A'             
     e( 89 - 89) =      9.80342  eV     1   --> A'             
     e( 90 - 90) =      9.80447  eV     1   --> A'             
     e( 91 - 91) =      9.86067  eV     1   --> A'             
     e( 92 - 92) =      9.93024  eV     1   --> A'             
     e( 93 - 93) =      9.93068  eV     1   --> A'             
     e( 94 - 94) =     11.08932  eV     1   --> A'             
     e( 95 - 95) =     11.10356  eV     1   --> A''            
     e( 96 - 96) =     11.14201  eV     1   --> A'             
     e( 97 - 97) =     11.14583  eV     1   --> A'             
     e( 98 - 98) =     11.16308  eV     1   --> A''            
     e( 99 - 99) =     11.16683  eV     1   --> A''            
     e(100 -100) =     12.45451  eV     1   --> A'             
     e(101 -101) =     12.46670  eV     1   --> A'             
     e(102 -102) =     12.47543  eV     1   --> A''            
     e(103 -103) =     12.48735  eV     1   --> A''            
     e(104 -104) =     12.53427  eV     1   --> A'             
     e(105 -105) =     12.55691  eV     1   --> A''            
     e(106 -106) =     13.80540  eV     1   --> A'             
     e(107 -107) =     13.81105  eV     1   --> A'             
     e(108 -108) =     13.81306  eV     1   --> A'             
     e(109 -109) =     14.68010  eV     1   --> A'             
     e(110 -110) =     14.68105  eV     1   --> A'             
     e(111 -111) =     14.87683  eV     1   --> A'             
     e(112 -112) =     15.65935  eV     1   --> A'             
     e(113 -113) =     15.67594  eV     1   --> A'             
     e(114 -114) =     15.81555  eV     1   --> A'             
     e(115 -115) =     15.86231  eV     1   --> A''            
     e(116 -116) =     15.92186  eV     1   --> A'             
     e(117 -117) =     16.01135  eV     1   --> A''            
     e(118 -118) =     16.02362  eV     1   --> A'             
     e(119 -119) =     16.10805  eV     1   --> A'             
     e(120 -120) =     16.13508  eV     1   --> A''            

 **************************************************************************

 **************************************************************************

                    xk=(   0.00000,   0.04093,   0.07724  )

     Band symmetry, C_s (m)     point group:

     e(  1 -  2) =    -28.43872  eV     2   --> A'             
     e(  1 -  2) =    -28.43872  eV     2   --> A''            
     e(  3 -  4) =    -28.43820  eV     2   --> A'             
     e(  3 -  4) =    -28.43820  eV     2   --> A''            
     e(  5 -  6) =    -28.43788  eV     2   --> A'             
     e(  5 -  6) =    -28.43788  eV     2   --> A''            
     e(  7 -  8) =    -28.43469  eV     2   --> A'             
     e(  7 -  8) =    -28.43469  eV     2   --> A''            
     e(  9 - 12) =    -28.43418  eV     4   -->   2 A'             
     e(  9 - 12) =    -28.43418  eV     4   -->   2 A''            
     e( 13 - 14) =    -28.37362  eV     2   --> A'             
     e( 13 - 14) =    -28.37362  eV     2   --> A''            
     e( 15 - 16) =    -28.37315  eV     2   --> A'             
     e( 15 - 16) =    -28.37315  eV     2   --> A''            
     e( 17 - 18) =    -28.37281  eV     2   --> A'             
     e( 17 - 18) =    -28.37281  eV     2   --> A''            
     e( 19 - 20) =    -28.36771  eV     2   --> A'             
     e( 19 - 20) =    -28.36771  eV     2   --> A''            
     e( 21 - 24) =    -28.36728  eV     4   -->   2 A'             
     e( 21 - 24) =    -28.36728  eV     4   -->   2 A''            
     e( 25 - 25) =    -28.35199  eV     1   --> A'             
     e( 26 - 26) =    -28.35153  eV     1   --> A'             
     e( 27 - 27) =    -28.35118  eV     1   --> A'             
     e( 28 - 28) =    -28.34556  eV     1   --> A'             
     e( 29 - 30) =    -28.34515  eV     2   -->   2 A'             
     e( 31 - 31) =     -6.81084  eV     1   --> A'             
     e( 32 - 32) =     -6.81059  eV     1   --> A'             
     e( 33 - 33) =     -6.81023  eV     1   --> A'             
     e( 34 - 34) =     -6.67400  eV     1   --> A'             
     e( 35 - 35) =     -6.67375  eV     1   --> A'             
     e( 36 - 36) =     -6.67344  eV     1   --> A'             
     e( 37 - 37) =     -6.67305  eV     1   --> A''            
     e( 38 - 38) =     -6.67280  eV     1   --> A''            
     e( 39 - 39) =     -6.67249  eV     1   --> A''            
     e( 40 - 40) =     -6.59869  eV     1   --> A'             
     e( 41 - 41) =     -6.59844  eV     1   --> A'             
     e( 42 - 43) =     -6.59815  eV     2   --> A'             
     e( 42 - 43) =     -6.59815  eV     2   --> A''            
     e( 44 - 44) =     -6.59787  eV     1   --> A''            
     e( 45 - 45) =     -6.59758  eV     1   --> A''            
     e( 46 - 46) =     -6.57995  eV     1   --> A'             
     e( 47 - 47) =     -6.57969  eV     1   --> A'             
     e( 48 - 48) =     -6.57942  eV     1   --> A'             
     e( 49 - 49) =     -6.57881  eV     1   --> A''            
     e( 50 - 50) =     -6.57855  eV     1   --> A''            
     e( 51 - 51) =     -6.57827  eV     1   --> A''            
     e( 52 - 52) =     -6.46653  eV     1   --> A'             
     e( 53 - 53) =     -6.46632  eV     1   --> A'             
     e( 54 - 54) =     -6.46604  eV     1   --> A'             
     e( 55 - 55) =     -6.46584  eV     1   --> A''            
     e( 56 - 56) =     -6.46563  eV     1   --> A''            
     e( 57 - 57) =     -6.46534  eV     1   --> A''            
     e( 58 - 58) =     -6.39934  eV     1   --> A'             
     e( 59 - 59) =     -6.39910  eV     1   --> A'             
     e( 60 - 60) =     -6.39883  eV     1   --> A'             
     e( 61 - 61) =     -4.34597  eV     1   --> A'             
     e( 62 - 62) =     -4.34477  eV     1   --> A'             
     e( 63 - 63) =     -4.16613  eV     1   --> A'             
     e( 64 - 64) =     -4.14817  eV     1   --> A'             
     e( 65 - 65) =     -3.94075  eV     1   --> A'             
     e( 66 - 66) =     -3.94043  eV     1   --> A'             
     e( 67 - 67) =      1.57073  eV     1   --> A'             
     e( 68 - 68) =      1.57175  eV     1   --> A'             
     e( 69 - 69) =      1.95398  eV     1   --> A'             
     e( 70 - 70) =      3.71344  eV     1   --> A'             
     e( 71 - 71) =      4.57525  eV     1   --> A'             
     e( 72 - 72) =      4.57719  eV     1   --> A'             
     e( 73 - 73) =      6.89449  eV     1   --> A'             
     e( 74 - 74) =      6.89655  eV     1   --> A'             
     e( 75 - 75) =      6.94859  eV     1   --> A'             
     e( 76 - 76) =      7.04342  eV     1   --> A''            
     e( 77 - 77) =      7.07007  eV     1   --> A'             
     e( 78 - 78) =      7.08392  eV     1   --> A'             
     e( 79 - 79) =      7.09741  eV     1   --> A''            
     e( 80 - 80) =      7.13234  eV     1   --> A''            
     e( 81 - 81) =      7.22218  eV     1   --> A'             
     e( 82 - 82) =      7.28296  eV     1   --> A''            
     e( 83 - 83) =      7.32196  eV     1   --> A''            
     e( 84 - 84) =      7.38813  eV     1   --> A''            
     e( 85 - 85) =      7.39446  eV     1   --> A'             
     e( 86 - 86) =      7.41263  eV     1   --> A'             
     e( 87 - 87) =      8.45349  eV     1   --> A'             
     e( 88 - 88) =      9.20642  eV     1   --> A'             
     e( 89 - 89) =      9.86261  eV     1   --> A'             
     e( 90 - 90) =      9.86700  eV     1   --> A'             
     e( 91 - 91) =      9.94165  eV     1   --> A'             
     e( 92 - 92) =     10.00992  eV     1   --> A'             
     e( 93 - 93) =     10.01223  eV     1   --> A'             
     e( 94 - 94) =     11.07400  eV     1   --> A'             
     e( 95 - 95) =     11.10678  eV     1   --> A'             
     e( 96 - 96) =     11.11384  eV     1   --> A'             
     e( 97 - 97) =     11.12760  eV     1   --> A''            
     e( 98 - 98) =     11.18701  eV     1   --> A''            
     e( 99 - 99) =     11.19358  eV     1   --> A''            
     e(100 -100) =     12.42139  eV     1   --> A'             
     e(101 -101) =     12.44657  eV     1   --> A'             
     e(102 -102) =     12.50245  eV     1   --> A'             
     e(103 -103) =     12.50259  eV     1   --> A''            
     e(104 -104) =     12.52565  eV     1   --> A''            
     e(105 -105) =     12.59053  eV     1   --> A''            
     e(106 -106) =     13.82059  eV     1   --> A'             
     e(107 -107) =     13.82522  eV     1   --> A'             
     e(108 -108) =     13.82831  eV     1   --> A'             
     e(109 -109) =     14.72378  eV     1   --> A'             
     e(110 -110) =     14.72574  eV     1   --> A'             
     e(111 -111) =     14.93347  eV     1   --> A'             
     e(112 -112) =     15.51284  eV     1   --> A'             
     e(113 -113) =     15.59237  eV     1   --> A'             
     e(114 -114) =     15.70792  eV     1   --> A'             
     e(115 -115) =     15.83560  eV     1   --> A''            
     e(116 -116) =     15.94062  eV     1   --> A''            
     e(117 -117) =     15.99353  eV     1   --> A'             
     e(118 -118) =     16.04876  eV     1   --> A'             
     e(119 -119) =     16.10672  eV     1   --> A'             
     e(120 -120) =     16.17793  eV     1   --> A''            

 **************************************************************************

 **************************************************************************

                    xk=(   0.00000,   0.06140,   0.07724  )

     Band symmetry, C_s (m)     point group:

     e(  1 -  1) =    -28.43872  eV     1   --> A'             
     e(  2 -  2) =    -28.43861  eV     1   --> A''            
     e(  3 -  3) =    -28.43820  eV     1   --> A'             
     e(  4 -  4) =    -28.43809  eV     1   --> A''            
     e(  5 -  5) =    -28.43788  eV     1   --> A'             
     e(  6 -  6) =    -28.43778  eV     1   --> A''            
     e(  7 -  7) =    -28.43469  eV     1   --> A'             
     e(  8 -  8) =    -28.43458  eV     1   --> A''            
     e(  9 - 12) =    -28.43418  eV     4   -->   2 A'             
     e(  9 - 12) =    -28.43418  eV     4   -->   2 A''            
     e( 13 - 14) =    -28.37364  eV     2   --> A'             
     e( 13 - 14) =    -28.37364  eV     2   --> A''            
     e( 15 - 16) =    -28.37317  eV     2   --> A'             
     e( 15 - 16) =    -28.37317  eV     2   --> A''            
     e( 17 - 18) =    -28.37283  eV     2   --> A'             
     e( 17 - 18) =    -28.37283  eV     2   --> A''            
     e( 19 - 20) =    -28.36773  eV     2   --> A'             
     e( 19 - 20) =    -28.36773  eV     2   --> A''            
     e( 21 - 24) =    -28.36730  eV     4   -->   2 A'             
     e( 21 - 24) =    -28.36730  eV     4   -->   2 A''            
     e( 25 - 25) =    -28.35195  eV     1   --> A'             
     e( 26 - 26) =    -28.35150  eV     1   --> A'             
     e( 27 - 27) =    -28.35114  eV     1   --> A'             
     e( 28 - 28) =    -28.34553  eV     1   --> A'             
     e( 29 - 30) =    -28.34512  eV     2   -->   2 A'             
     e( 31 - 31) =     -6.81066  eV     1   --> A'             
     e( 32 - 32) =     -6.81041  eV     1   --> A'             
     e( 33 - 33) =     -6.81006  eV     1   --> A'             
     e( 34 - 34) =     -6.67523  eV     1   --> A'             
     e( 35 - 35) =     -6.67498  eV     1   --> A'             
     e( 36 - 36) =     -6.67466  eV     1   --> A'             
     e( 37 - 37) =     -6.67310  eV     1   --> A''            
     e( 38 - 38) =     -6.67285  eV     1   --> A''            
     e( 39 - 39) =     -6.67253  eV     1   --> A''            
     e( 40 - 40) =     -6.59900  eV     1   --> A'             
     e( 41 - 41) =     -6.59875  eV     1   --> A'             
     e( 42 - 42) =     -6.59846  eV     1   --> A'             
     e( 43 - 43) =     -6.59772  eV     1   --> A''            
     e( 44 - 44) =     -6.59747  eV     1   --> A''            
     e( 45 - 45) =     -6.59718  eV     1   --> A''            
     e( 46 - 46) =     -6.58099  eV     1   --> A'             
     e( 47 - 47) =     -6.58073  eV     1   --> A'             
     e( 48 - 48) =     -6.58045  eV     1   --> A'             
     e( 49 - 49) =     -6.57843  eV     1   --> A''            
     e( 50 - 50) =     -6.57817  eV     1   --> A''            
     e( 51 - 51) =     -6.57789  eV     1   --> A''            
     e( 52 - 52) =     -6.46744  eV     1   --> A'             
     e( 53 - 53) =     -6.46723  eV     1   --> A'             
     e( 54 - 54) =     -6.46694  eV     1   --> A'             
     e( 55 - 55) =     -6.46592  eV     1   --> A''            
     e( 56 - 56) =     -6.46571  eV     1   --> A''            
     e( 57 - 57) =     -6.46543  eV     1   --> A''            
     e( 58 - 58) =     -6.39842  eV     1   --> A'             
     e( 59 - 59) =     -6.39819  eV     1   --> A'             
     e( 60 - 60) =     -6.39792  eV     1   --> A'             
     e( 61 - 61) =     -4.32903  eV     1   --> A'             
     e( 62 - 62) =     -4.32783  eV     1   --> A'             
     e( 63 - 63) =     -4.14952  eV     1   --> A'             
     e( 64 - 64) =     -4.13180  eV     1   --> A'             
     e( 65 - 65) =     -3.92486  eV     1   --> A'             
     e( 66 - 66) =     -3.92454  eV     1   --> A'             
     e( 67 - 67) =      1.57853  eV     1   --> A'             
     e( 68 - 68) =      1.57956  eV     1   --> A'             
     e( 69 - 69) =      1.95549  eV     1   --> A'             
     e( 70 - 70) =      3.72354  eV     1   --> A'             
     e( 71 - 71) =      4.56240  eV     1   --> A'             
     e( 72 - 72) =      4.56462  eV     1   --> A'             
     e( 73 - 73) =      6.71274  eV     1   --> A'             
     e( 74 - 74) =      6.71414  eV     1   --> A'             
     e( 75 - 75) =      6.80918  eV     1   --> A'             
     e( 76 - 76) =      6.95662  eV     1   --> A'             
     e( 77 - 77) =      6.97344  eV     1   --> A'             
     e( 78 - 78) =      7.00839  eV     1   --> A''            
     e( 79 - 79) =      7.02797  eV     1   --> A'             
     e( 80 - 80) =      7.05540  eV     1   --> A''            
     e( 81 - 81) =      7.10671  eV     1   --> A''            
     e( 82 - 82) =      7.24368  eV     1   --> A''            
     e( 83 - 83) =      7.30119  eV     1   --> A''            
     e( 84 - 84) =      7.35951  eV     1   --> A''            
     e( 85 - 85) =      7.43471  eV     1   --> A'             
     e( 86 - 86) =      7.45135  eV     1   --> A'             
     e( 87 - 87) =      8.42753  eV     1   --> A'             
     e( 88 - 88) =      9.37237  eV     1   --> A'             
     e( 89 - 89) =      9.94498  eV     1   --> A'             
     e( 90 - 90) =      9.95768  eV     1   --> A'             
     e( 91 - 91) =     10.05658  eV     1   --> A'             
     e( 92 - 92) =     10.12375  eV     1   --> A'             
     e( 93 - 93) =     10.12967  eV     1   --> A'             
     e( 94 - 94) =     11.05873  eV     1   --> A'             
     e( 95 - 95) =     11.06278  eV     1   --> A'             
     e( 96 - 96) =     11.07183  eV     1   --> A'             
     e( 97 - 97) =     11.16624  eV     1   --> A''            
     e( 98 - 98) =     11.22726  eV     1   --> A''            
     e( 99 - 99) =     11.23491  eV     1   --> A''            
     e(100 -100) =     12.37804  eV     1   --> A'             
     e(101 -101) =     12.41768  eV     1   --> A'             
     e(102 -102) =     12.45623  eV     1   --> A'             
     e(103 -103) =     12.55131  eV     1   --> A''            
     e(104 -104) =     12.58398  eV     1   --> A''            
     e(105 -105) =     12.64558  eV     1   --> A''            
     e(106 -106) =     13.83760  eV     1   --> A'             
     e(107 -107) =     13.84438  eV     1   --> A'             
     e(108 -108) =     13.84661  eV     1   --> A'             
     e(109 -109) =     14.78825  eV     1   --> A'             
     e(110 -110) =     14.79630  eV     1   --> A'             
     e(111 -111) =     15.00516  eV     1   --> A'             
     e(112 -112) =     15.32128  eV     1   --> A'             
     e(113 -113) =     15.46498  eV     1   --> A'             
     e(114 -114) =     15.57936  eV     1   --> A'             
     e(115 -115) =     15.79810  eV     1   --> A''            
     e(116 -116) =     15.87150  eV     1   --> A''            
     e(117 -117) =     16.08549  eV     1   --> A'             
     e(118 -118) =     16.13329  eV     1   --> A'             
     e(119 -119) =     16.13973  eV     1   --> A'             
     e(120 -120) =     16.20472  eV     1   --> A''            

 **************************************************************************

 **************************************************************************

                    xk=(   0.00000,   0.08187,   0.07724  )

     Band symmetry, C_s (m)     point group:

     e(  1 -  1) =    -28.43871  eV     1   --> A'             
     e(  2 -  2) =    -28.43853  eV     1   --> A''            
     e(  3 -  3) =    -28.43819  eV     1   --> A'             
     e(  4 -  4) =    -28.43801  eV     1   --> A''            
     e(  5 -  5) =    -28.43788  eV     1   --> A'             
     e(  6 -  6) =    -28.43769  eV     1   --> A''            
     e(  7 -  7) =    -28.43469  eV     1   --> A'             
     e(  8 -  8) =    -28.43450  eV     1   --> A''            
     e(  9 - 10) =    -28.43418  eV     2   -->   2 A'             
     e( 11 - 12) =    -28.43399  eV     2   -->   2 A''            
     e( 13 - 14) =    -28.37367  eV     2   --> A'             
     e( 13 - 14) =    -28.37367  eV     2   --> A''            
     e( 15 - 16) =    -28.37320  eV     2   --> A'             
     e( 15 - 16) =    -28.37320  eV     2   --> A''            
     e( 17 - 18) =    -28.37286  eV     2   --> A'             
     e( 17 - 18) =    -28.37286  eV     2   --> A''            
     e( 19 - 20) =    -28.36776  eV     2   --> A'             
     e( 19 - 20) =    -28.36776  eV     2   --> A''            
     e( 21 - 24) =    -28.36733  eV     4   -->   2 A'             
     e( 21 - 24) =    -28.36733  eV     4   -->   2 A''            
     e( 25 - 25) =    -28.35191  eV     1   --> A'             
     e( 26 - 26) =    -28.35146  eV     1   --> A'             
     e( 27 - 27) =    -28.35110  eV     1   --> A'             
     e( 28 - 28) =    -28.34548  eV     1   --> A'             
     e( 29 - 30) =    -28.34507  eV     2   -->   2 A'             
     e( 31 - 31) =     -6.81043  eV     1   --> A'             
     e( 32 - 32) =     -6.81018  eV     1   --> A'             
     e( 33 - 33) =     -6.80982  eV     1   --> A'             
     e( 34 - 34) =     -6.67692  eV     1   --> A'             
     e( 35 - 35) =     -6.67666  eV     1   --> A'             
     e( 36 - 36) =     -6.67634  eV     1   --> A'             
     e( 37 - 37) =     -6.67317  eV     1   --> A''            
     e( 38 - 38) =     -6.67292  eV     1   --> A''            
     e( 39 - 39) =     -6.67260  eV     1   --> A''            
     e( 40 - 40) =     -6.59942  eV     1   --> A'             
     e( 41 - 41) =     -6.59917  eV     1   --> A'             
     e( 42 - 42) =     -6.59888  eV     1   --> A'             
     e( 43 - 43) =     -6.59717  eV     1   --> A''            
     e( 44 - 44) =     -6.59693  eV     1   --> A''            
     e( 45 - 45) =     -6.59663  eV     1   --> A''            
     e( 46 - 46) =     -6.58243  eV     1   --> A'             
     e( 47 - 47) =     -6.58216  eV     1   --> A'             
     e( 48 - 48) =     -6.58188  eV     1   --> A'             
     e( 49 - 49) =     -6.57790  eV     1   --> A''            
     e( 50 - 50) =     -6.57765  eV     1   --> A''            
     e( 51 - 51) =     -6.57737  eV     1   --> A''            
     e( 52 - 52) =     -6.46865  eV     1   --> A'             
     e( 53 - 53) =     -6.46842  eV     1   --> A'             
     e( 54 - 54) =     -6.46813  eV     1   --> A'             
     e( 55 - 55) =     -6.46604  eV     1   --> A''            
     e( 56 - 56) =     -6.46583  eV     1   --> A''            
     e( 57 - 57) =     -6.46555  eV     1   --> A''            
     e( 58 - 58) =     -6.39721  eV     1   --> A'             
     e( 59 - 59) =     -6.39698  eV     1   --> A'             
     e( 60 - 60) =     -6.39671  eV     1   --> A'             
     e( 61 - 61) =     -4.30543  eV     1   --> A'             
     e( 62 - 62) =     -4.30423  eV     1   --> A'             
     e( 63 - 63) =     -4.12637  eV     1   --> A'             
     e( 64 - 64) =     -4.10901  eV     1   --> A'             
     e( 65 - 65) =     -3.90275  eV     1   --> A'             
     e( 66 - 66) =     -3.90241  eV     1   --> A'             
     e( 67 - 67) =      1.58896  eV     1   --> A'             
     e( 68 - 68) =      1.59008  eV     1   --> A'             
     e( 69 - 69) =      1.95700  eV     1   --> A'             
     e( 70 - 70) =      3.73701  eV     1   --> A'             
     e( 71 - 71) =      4.54165  eV     1   --> A'             
     e( 72 - 72) =      4.54515  eV     1   --> A'             
     e( 73 - 73) =      6.50559  eV     1   --> A'             
     e( 74 - 74) =      6.50951  eV     1   --> A'             
     e( 75 - 75) =      6.63556  eV     1   --> A'             
     e( 76 - 76) =      6.80271  eV     1   --> A'             
     e( 77 - 77) =      6.81671  eV     1   --> A'             
     e( 78 - 78) =      6.83607  eV     1   --> A'             
     e( 79 - 79) =      6.96138  eV     1   --> A''            
     e( 80 - 80) =      7.00226  eV     1   --> A''            
     e( 81 - 81) =      7.06878  eV     1   --> A''            
     e( 82 - 82) =      7.19444  eV     1   --> A''            
     e( 83 - 83) =      7.26932  eV     1   --> A''            
     e( 84 - 84) =      7.32068  eV     1   --> A''            
     e( 85 - 85) =      7.46377  eV     1   --> A'             
     e( 86 - 86) =      7.47618  eV     1   --> A'             
     e( 87 - 87) =      8.39031  eV     1   --> A'             
     e( 88 - 88) =      9.55413  eV     1   --> A'             
     e( 89 - 89) =     10.03220  eV     1   --> A'             
     e( 90 - 90) =     10.05769  eV     1   --> A'             
     e( 91 - 91) =     10.17888  eV     1   --> A'             
     e( 92 - 92) =     10.24589  eV     1   --> A'             
     e( 93 - 93) =     10.25503  eV     1   --> A'             
     e( 94 - 94) =     11.03300  eV     1   --> A'             
     e( 95 - 95) =     11.04130  eV     1   --> A'             
     e( 96 - 96) =     11.06068  eV     1   --> A'             
     e( 97 - 97) =     11.21747  eV     1   --> A''            
     e( 98 - 98) =     11.28221  eV     1   --> A''            
     e( 99 - 99) =     11.28843  eV     1   --> A''            
     e(100 -100) =     12.33461  eV     1   --> A'             
     e(101 -101) =     12.39054  eV     1   --> A'             
     e(102 -102) =     12.40425  eV     1   --> A'             
     e(103 -103) =     12.62050  eV     1   --> A''            
     e(104 -104) =     12.66053  eV     1   --> A''            
     e(105 -105) =     12.72063  eV     1   --> A''            
     e(106 -106) =     13.84079  eV     1   --> A'             
     e(107 -107) =     13.85504  eV     1   --> A'             
     e(108 -108) =     13.87855  eV     1   --> A'             
     e(109 -109) =     14.84771  eV     1   --> A'             
     e(110 -110) =     14.87743  eV     1   --> A'             
     e(111 -111) =     15.02799  eV     1   --> A'             
     e(112 -112) =     15.13528  eV     1   --> A'             
     e(113 -113) =     15.33587  eV     1   --> A'             
     e(114 -114) =     15.50945  eV     1   --> A'             
     e(115 -115) =     15.75731  eV     1   --> A''            
     e(116 -116) =     15.80903  eV     1   --> A''            
     e(117 -117) =     16.08012  eV     1   --> A'             
     e(118 -118) =     16.17197  eV     1   --> A'             
     e(119 -119) =     16.21713  eV     1   --> A''            
     e(120 -120) =     16.26260  eV     1   --> A'             

 **************************************************************************

 **************************************************************************

                    xk=(   0.00000,   0.10233,   0.07724  )

     Band symmetry, C_s (m)     point group:

     e(  1 -  1) =    -28.43871  eV     1   --> A'             
     e(  2 -  2) =    -28.43842  eV     1   --> A''            
     e(  3 -  3) =    -28.43819  eV     1   --> A'             
     e(  4 -  5) =    -28.43790  eV     2   --> A'             
     e(  4 -  5) =    -28.43790  eV     2   --> A''            
     e(  6 -  6) =    -28.43758  eV     1   --> A''            
     e(  7 -  7) =    -28.43468  eV     1   --> A'             
     e(  8 -  8) =    -28.43439  eV     1   --> A''            
     e(  9 - 10) =    -28.43417  eV     2   -->   2 A'             
     e( 11 - 12) =    -28.43388  eV     2   -->   2 A''            
     e( 13 - 14) =    -28.37370  eV     2   --> A'             
     e( 13 - 14) =    -28.37370  eV     2   --> A''            
     e( 15 - 16) =    -28.37324  eV     2   --> A'             
     e( 15 - 16) =    -28.37324  eV     2   --> A''            
     e( 17 - 18) =    -28.37289  eV     2   --> A'             
     e( 17 - 18) =    -28.37289  eV     2   --> A''            
     e( 19 - 20) =    -28.36779  eV     2   --> A'             
     e( 19 - 20) =    -28.36779  eV     2   --> A''            
     e( 21 - 24) =    -28.36736  eV     4   -->   2 A'             
     e( 21 - 24) =    -28.36736  eV     4   -->   2 A''            
     e( 25 - 25) =    -28.35185  eV     1   --> A'             
     e( 26 - 26) =    -28.35140  eV     1   --> A'             
     e( 27 - 27) =    -28.35104  eV     1   --> A'             
     e( 28 - 28) =    -28.34543  eV     1   --> A'             
     e( 29 - 30) =    -28.34502  eV     2   -->   2 A'             
     e( 31 - 31) =     -6.81013  eV     1   --> A'             
     e( 32 - 32) =     -6.80988  eV     1   --> A'             
     e( 33 - 33) =     -6.80952  eV     1   --> A'             
     e( 34 - 34) =     -6.67905  eV     1   --> A'             
     e( 35 - 35) =     -6.67878  eV     1   --> A'             
     e( 36 - 36) =     -6.67844  eV     1   --> A'             
     e( 37 - 37) =     -6.67326  eV     1   --> A''            
     e( 38 - 38) =     -6.67301  eV     1   --> A''            
     e( 39 - 39) =     -6.67269  eV     1   --> A''            
     e( 40 - 40) =     -6.59994  eV     1   --> A'             
     e( 41 - 41) =     -6.59969  eV     1   --> A'             
     e( 42 - 42) =     -6.59939  eV     1   --> A'             
     e( 43 - 43) =     -6.59648  eV     1   --> A''            
     e( 44 - 44) =     -6.59623  eV     1   --> A''            
     e( 45 - 45) =     -6.59594  eV     1   --> A''            
     e( 46 - 46) =     -6.58424  eV     1   --> A'             
     e( 47 - 47) =     -6.58397  eV     1   --> A'             
     e( 48 - 48) =     -6.58369  eV     1   --> A'             
     e( 49 - 49) =     -6.57724  eV     1   --> A''            
     e( 50 - 50) =     -6.57698  eV     1   --> A''            
     e( 51 - 51) =     -6.57670  eV     1   --> A''            
     e( 52 - 52) =     -6.47008  eV     1   --> A'             
     e( 53 - 53) =     -6.46984  eV     1   --> A'             
     e( 54 - 54) =     -6.46955  eV     1   --> A'             
     e( 55 - 55) =     -6.46619  eV     1   --> A''            
     e( 56 - 56) =     -6.46598  eV     1   --> A''            
     e( 57 - 57) =     -6.46569  eV     1   --> A''            
     e( 58 - 58) =     -6.39575  eV     1   --> A'             
     e( 59 - 59) =     -6.39552  eV     1   --> A'             
     e( 60 - 60) =     -6.39525  eV     1   --> A'             
     e( 61 - 61) =     -4.27528  eV     1   --> A'             
     e( 62 - 62) =     -4.27408  eV     1   --> A'             
     e( 63 - 63) =     -4.09681  eV     1   --> A'             
     e( 64 - 64) =     -4.07990  eV     1   --> A'             
     e( 65 - 65) =     -3.87453  eV     1   --> A'             
     e( 66 - 66) =     -3.87418  eV     1   --> A'             
     e( 67 - 67) =      1.60147  eV     1   --> A'             
     e( 68 - 68) =      1.60291  eV     1   --> A'             
     e( 69 - 69) =      1.95784  eV     1   --> A'             
     e( 70 - 70) =      3.75308  eV     1   --> A'             
     e( 71 - 71) =      4.51038  eV     1   --> A'             
     e( 72 - 72) =      4.51666  eV     1   --> A'             
     e( 73 - 73) =      6.28299  eV     1   --> A'             
     e( 74 - 74) =      6.28862  eV     1   --> A'             
     e( 75 - 75) =      6.43949  eV     1   --> A'             
     e( 76 - 76) =      6.56279  eV     1   --> A'             
     e( 77 - 77) =      6.66410  eV     1   --> A'             
     e( 78 - 78) =      6.68606  eV     1   --> A'             
     e( 79 - 79) =      6.90414  eV     1   --> A''            
     e( 80 - 80) =      6.93966  eV     1   --> A''            
     e( 81 - 81) =      7.02001  eV     1   --> A''            
     e( 82 - 82) =      7.13664  eV     1   --> A''            
     e( 83 - 83) =      7.22756  eV     1   --> A''            
     e( 84 - 84) =      7.27275  eV     1   --> A''            
     e( 85 - 85) =      7.48297  eV     1   --> A'             
     e( 86 - 86) =      7.48907  eV     1   --> A'             
     e( 87 - 87) =      8.34140  eV     1   --> A'             
     e( 88 - 88) =      9.73140  eV     1   --> A'             
     e( 89 - 89) =     10.10331  eV     1   --> A'             
     e( 90 - 90) =     10.14373  eV     1   --> A'             
     e( 91 - 91) =     10.27628  eV     1   --> A'             
     e( 92 - 92) =     10.34281  eV     1   --> A'             
     e( 93 - 93) =     10.34980  eV     1   --> A'             
     e( 94 - 94) =     11.05352  eV     1   --> A'             
     e( 95 - 95) =     11.05545  eV     1   --> A'             
     e( 96 - 96) =     11.10402  eV     1   --> A'             
     e( 97 - 97) =     11.27868  eV     1   --> A''            
     e( 98 - 98) =     11.34959  eV     1   --> A''            
     e( 99 - 99) =     11.35123  eV     1   --> A''            
     e(100 -100) =     12.30223  eV     1   --> A'             
     e(101 -101) =     12.35635  eV     1   --> A'             
     e(102 -102) =     12.37608  eV     1   --> A'             
     e(103 -103) =     12.70856  eV     1   --> A''            
     e(104 -104) =     12.75296  eV     1   --> A''            
     e(105 -105) =     12.81384  eV     1   --> A''            
     e(106 -106) =     13.83088  eV     1   --> A'             
     e(107 -107) =     13.85156  eV     1   --> A'             
     e(108 -108) =     13.91817  eV     1   --> A'             
     e(109 -109) =     14.83235  eV     1   --> A'             
     e(110 -110) =     14.86734  eV     1   --> A'             
     e(111 -111) =     14.93394  eV     1   --> A'             
     e(112 -112) =     15.06320  eV     1   --> A'             
     e(113 -113) =     15.28632  eV     1   --> A'             
     e(114 -114) =     15.57250  eV     1   --> A'             
     e(115 -115) =     15.72030  eV     1   --> A''            
     e(116 -116) =     15.75766  eV     1   --> A''            
     e(117 -117) =     15.95408  eV     1   --> A'             
     e(118 -118) =     16.16707  eV     1   --> A'             
     e(119 -119) =     16.21989  eV     1   --> A''            
     e(120 -120) =     16.34915  eV     1   --> A'             

 **************************************************************************

 **************************************************************************

                    xk=(   0.00000,   0.12280,   0.07724  )

     Band symmetry, C_s (m)     point group:

     e(  1 -  1) =    -28.43871  eV     1   --> A'             
     e(  2 -  2) =    -28.43829  eV     1   --> A''            
     e(  3 -  3) =    -28.43819  eV     1   --> A'             
     e(  4 -  4) =    -28.43787  eV     1   --> A'             
     e(  5 -  5) =    -28.43777  eV     1   --> A''            
     e(  6 -  6) =    -28.43746  eV     1   --> A''            
     e(  7 -  7) =    -28.43468  eV     1   --> A'             
     e(  8 - 10) =    -28.43426  eV     3   -->   2 A'             
     e(  8 - 10) =    -28.43426  eV     3   --> A''            
     e( 11 - 12) =    -28.43375  eV     2   -->   2 A''            
     e( 13 - 13) =    -28.37374  eV     1   --> A'             
     e( 14 - 14) =    -28.37364  eV     1   --> A''            
     e( 15 - 15) =    -28.37328  eV     1   --> A'             
     e( 16 - 16) =    -28.37317  eV     1   --> A''            
     e( 17 - 17) =    -28.37293  eV     1   --> A'             
     e( 18 - 18) =    -28.37283  eV     1   --> A''            
     e( 19 - 19) =    -28.36784  eV     1   --> A'             
     e( 20 - 20) =    -28.36772  eV     1   --> A''            
     e( 21 - 24) =    -28.36740  eV     4   -->   2 A'             
     e( 21 - 24) =    -28.36740  eV     4   -->   2 A''            
     e( 25 - 25) =    -28.35178  eV     1   --> A'             
     e( 26 - 26) =    -28.35133  eV     1   --> A'             
     e( 27 - 27) =    -28.35097  eV     1   --> A'             
     e( 28 - 28) =    -28.34536  eV     1   --> A'             
     e( 29 - 30) =    -28.34495  eV     2   -->   2 A'             
     e( 31 - 31) =     -6.80977  eV     1   --> A'             
     e( 32 - 32) =     -6.80952  eV     1   --> A'             
     e( 33 - 33) =     -6.80916  eV     1   --> A'             
     e( 34 - 34) =     -6.68158  eV     1   --> A'             
     e( 35 - 35) =     -6.68130  eV     1   --> A'             
     e( 36 - 36) =     -6.68093  eV     1   --> A'             
     e( 37 - 37) =     -6.67337  eV     1   --> A''            
     e( 38 - 38) =     -6.67312  eV     1   --> A''            
     e( 39 - 39) =     -6.67280  eV     1   --> A''            
     e( 40 - 40) =     -6.60054  eV     1   --> A'             
     e( 41 - 41) =     -6.60029  eV     1   --> A'             
     e( 42 - 42) =     -6.60000  eV     1   --> A'             
     e( 43 - 43) =     -6.59565  eV     1   --> A''            
     e( 44 - 44) =     -6.59540  eV     1   --> A''            
     e( 45 - 45) =     -6.59510  eV     1   --> A''            
     e( 46 - 46) =     -6.58642  eV     1   --> A'             
     e( 47 - 47) =     -6.58612  eV     1   --> A'             
     e( 48 - 48) =     -6.58584  eV     1   --> A'             
     e( 49 - 49) =     -6.57645  eV     1   --> A''            
     e( 50 - 50) =     -6.57619  eV     1   --> A''            
     e( 51 - 51) =     -6.57591  eV     1   --> A''            
     e( 52 - 52) =     -6.47168  eV     1   --> A'             
     e( 53 - 53) =     -6.47142  eV     1   --> A'             
     e( 54 - 54) =     -6.47113  eV     1   --> A'             
     e( 55 - 55) =     -6.46637  eV     1   --> A''            
     e( 56 - 56) =     -6.46616  eV     1   --> A''            
     e( 57 - 57) =     -6.46587  eV     1   --> A''            
     e( 58 - 58) =     -6.39409  eV     1   --> A'             
     e( 59 - 59) =     -6.39386  eV     1   --> A'             
     e( 60 - 60) =     -6.39359  eV     1   --> A'             
     e( 61 - 61) =     -4.23871  eV     1   --> A'             
     e( 62 - 62) =     -4.23751  eV     1   --> A'             
     e( 63 - 63) =     -4.06099  eV     1   --> A'             
     e( 64 - 64) =     -4.04464  eV     1   --> A'             
     e( 65 - 65) =     -3.84039  eV     1   --> A'             
     e( 66 - 66) =     -3.83999  eV     1   --> A'             
     e( 67 - 67) =      1.61534  eV     1   --> A'             
     e( 68 - 68) =      1.61746  eV     1   --> A'             
     e( 69 - 69) =      1.95718  eV     1   --> A'             
     e( 70 - 70) =      3.77056  eV     1   --> A'             
     e( 71 - 71) =      4.46541  eV     1   --> A'             
     e( 72 - 72) =      4.47625  eV     1   --> A'             
     e( 73 - 73) =      6.05166  eV     1   --> A'             
     e( 74 - 74) =      6.05794  eV     1   --> A'             
     e( 75 - 75) =      6.22960  eV     1   --> A'             
     e( 76 - 76) =      6.31942  eV     1   --> A'             
     e( 77 - 77) =      6.51036  eV     1   --> A'             
     e( 78 - 78) =      6.53531  eV     1   --> A'             
     e( 79 - 79) =      6.83851  eV     1   --> A''            
     e( 80 - 80) =      6.86941  eV     1   --> A''            
     e( 81 - 81) =      6.96207  eV     1   --> A''            
     e( 82 - 82) =      7.07186  eV     1   --> A''            
     e( 83 - 83) =      7.17728  eV     1   --> A''            
     e( 84 - 84) =      7.21705  eV     1   --> A''            
     e( 85 - 85) =      7.49172  eV     1   --> A'             
     e( 86 - 86) =      7.49404  eV     1   --> A'             
     e( 87 - 87) =      8.28044  eV     1   --> A'             
     e( 88 - 88) =      9.88883  eV     1   --> A'             
     e( 89 - 89) =     10.13681  eV     1   --> A'             
     e( 90 - 90) =     10.18796  eV     1   --> A'             
     e( 91 - 91) =     10.32445  eV     1   --> A'             
     e( 92 - 92) =     10.38766  eV     1   --> A'             
     e( 93 - 93) =     10.39447  eV     1   --> A'             
     e( 94 - 94) =     11.14028  eV     1   --> A'             
     e( 95 - 95) =     11.15136  eV     1   --> A'             
     e( 96 - 96) =     11.20644  eV     1   --> A'             
     e( 97 - 97) =     11.34688  eV     1   --> A''            
     e( 98 - 98) =     11.42005  eV     1   --> A''            
     e( 99 - 99) =     11.42673  eV     1   --> A''            
     e(100 -100) =     12.29047  eV     1   --> A'             
     e(101 -101) =     12.32232  eV     1   --> A'             
     e(102 -102) =     12.38248  eV     1   --> A'             
     e(103 -103) =     12.81353  eV     1   --> A''            
     e(104 -104) =     12.85853  eV     1   --> A''            
     e(105 -105) =     12.92300  eV     1   --> A''            
     e(106 -106) =     13.81087  eV     1   --> A'             
     e(107 -107) =     13.83464  eV     1   --> A'             
     e(108 -108) =     13.96177  eV     1   --> A'             
     e(109 -109) =     14.71155  eV     1   --> A'             
     e(110 -110) =     14.72625  eV     1   --> A'             
     e(111 -111) =     14.78051  eV     1   --> A'             
     e(112 -112) =     15.13765  eV     1   --> A'             
     e(113 -113) =     15.34215  eV     1   --> A'             
     e(114 -114) =     15.66946  eV     1   --> A'             
     e(115 -115) =     15.69308  eV     1   --> A''            
     e(116 -116) =     15.72125  eV     1   --> A''            
     e(117 -117) =     15.86351  eV     1   --> A'             
     e(118 -118) =     16.10019  eV     1   --> A'             
     e(119 -119) =     16.21933  eV     1   --> A''            
     e(120 -120) =     16.31676  eV     1   --> A'             

 **************************************************************************

 **************************************************************************

                    xk=(   0.00000,   0.14327,   0.07724  )

     Band symmetry, C_s (m)     point group:

     e(  1 -  1) =    -28.43870  eV     1   --> A'             
     e(  2 -  3) =    -28.43818  eV     2   --> A'             
     e(  2 -  3) =    -28.43818  eV     2   --> A''            
     e(  4 -  4) =    -28.43787  eV     1   --> A'             
     e(  5 -  5) =    -28.43763  eV     1   --> A''            
     e(  6 -  6) =    -28.43731  eV     1   --> A''            
     e(  7 -  7) =    -28.43467  eV     1   --> A'             
     e(  8 - 10) =    -28.43416  eV     3   -->   2 A'             
     e(  8 - 10) =    -28.43416  eV     3   --> A''            
     e( 11 - 12) =    -28.43361  eV     2   -->   2 A''            
     e( 13 - 13) =    -28.37379  eV     1   --> A'             
     e( 14 - 14) =    -28.37365  eV     1   --> A''            
     e( 15 - 15) =    -28.37332  eV     1   --> A'             
     e( 16 - 16) =    -28.37318  eV     1   --> A''            
     e( 17 - 17) =    -28.37298  eV     1   --> A'             
     e( 18 - 18) =    -28.37284  eV     1   --> A''            
     e( 19 - 19) =    -28.36788  eV     1   --> A'             
     e( 20 - 20) =    -28.36773  eV     1   --> A''            
     e( 21 - 22) =    -28.36745  eV     2   -->   2 A'             
     e( 23 - 24) =    -28.36730  eV     2   -->   2 A''            
     e( 25 - 25) =    -28.35170  eV     1   --> A'             
     e( 26 - 26) =    -28.35125  eV     1   --> A'             
     e( 27 - 27) =    -28.35090  eV     1   --> A'             
     e( 28 - 28) =    -28.34528  eV     1   --> A'             
     e( 29 - 30) =    -28.34487  eV     2   -->   2 A'             
     e( 31 - 31) =     -6.80936  eV     1   --> A'             
     e( 32 - 32) =     -6.80911  eV     1   --> A'             
     e( 33 - 33) =     -6.80875  eV     1   --> A'             
     e( 34 - 34) =     -6.68447  eV     1   --> A'             
     e( 35 - 35) =     -6.68418  eV     1   --> A'             
     e( 36 - 36) =     -6.68377  eV     1   --> A'             
     e( 37 - 37) =     -6.67349  eV     1   --> A''            
     e( 38 - 38) =     -6.67325  eV     1   --> A''            
     e( 39 - 39) =     -6.67293  eV     1   --> A''            
     e( 40 - 40) =     -6.60122  eV     1   --> A'             
     e( 41 - 41) =     -6.60097  eV     1   --> A'             
     e( 42 - 42) =     -6.60068  eV     1   --> A'             
     e( 43 - 43) =     -6.59468  eV     1   --> A''            
     e( 44 - 44) =     -6.59443  eV     1   --> A''            
     e( 45 - 45) =     -6.59414  eV     1   --> A''            
     e( 46 - 46) =     -6.58891  eV     1   --> A'             
     e( 47 - 47) =     -6.58860  eV     1   --> A'             
     e( 48 - 48) =     -6.58830  eV     1   --> A'             
     e( 49 - 49) =     -6.57553  eV     1   --> A''            
     e( 50 - 50) =     -6.57528  eV     1   --> A''            
     e( 51 - 51) =     -6.57500  eV     1   --> A''            
     e( 52 - 52) =     -6.47338  eV     1   --> A'             
     e( 53 - 53) =     -6.47310  eV     1   --> A'             
     e( 54 - 54) =     -6.47281  eV     1   --> A'             
     e( 55 - 55) =     -6.46658  eV     1   --> A''            
     e( 56 - 56) =     -6.46636  eV     1   --> A''            
     e( 57 - 57) =     -6.46608  eV     1   --> A''            
     e( 58 - 58) =     -6.39229  eV     1   --> A'             
     e( 59 - 59) =     -6.39205  eV     1   --> A'             
     e( 60 - 60) =     -6.39178  eV     1   --> A'             
     e( 61 - 61) =     -4.19592  eV     1   --> A'             
     e( 62 - 62) =     -4.19470  eV     1   --> A'             
     e( 63 - 63) =     -4.01909  eV     1   --> A'             
     e( 64 - 64) =     -4.00342  eV     1   --> A'             
     e( 65 - 65) =     -3.80053  eV     1   --> A'             
     e( 66 - 66) =     -3.80004  eV     1   --> A'             
     e( 67 - 67) =      1.62967  eV     1   --> A'             
     e( 68 - 68) =      1.63291  eV     1   --> A'             
     e( 69 - 69) =      1.95395  eV     1   --> A'             
     e( 70 - 70) =      3.78764  eV     1   --> A'             
     e( 71 - 71) =      4.40326  eV     1   --> A'             
     e( 72 - 72) =      4.42062  eV     1   --> A'             
     e( 73 - 73) =      5.81713  eV     1   --> A'             
     e( 74 - 74) =      5.82296  eV     1   --> A'             
     e( 75 - 75) =      6.01117  eV     1   --> A'             
     e( 76 - 76) =      6.08210  eV     1   --> A'             
     e( 77 - 77) =      6.36512  eV     1   --> A'             
     e( 78 - 78) =      6.39365  eV     1   --> A'             
     e( 79 - 79) =      6.76637  eV     1   --> A''            
     e( 80 - 80) =      6.79329  eV     1   --> A''            
     e( 81 - 81) =      6.89673  eV     1   --> A''            
     e( 82 - 82) =      7.00164  eV     1   --> A''            
     e( 83 - 83) =      7.11999  eV     1   --> A''            
     e( 84 - 84) =      7.15499  eV     1   --> A''            
     e( 85 - 85) =      7.48519  eV     1   --> A'             
     e( 86 - 86) =      7.49773  eV     1   --> A'             
     e( 87 - 87) =      8.20729  eV     1   --> A'             
     e( 88 - 88) =     10.01423  eV     1   --> A'             
     e( 89 - 89) =     10.11921  eV     1   --> A'             
     e( 90 - 90) =     10.17143  eV     1   --> A'             
     e( 91 - 91) =     10.32521  eV     1   --> A'             
     e( 92 - 92) =     10.38252  eV     1   --> A'             
     e( 93 - 93) =     10.41475  eV     1   --> A'             
     e( 94 - 94) =     11.28258  eV     1   --> A'             
     e( 95 - 95) =     11.30977  eV     1   --> A'             
     e( 96 - 96) =     11.35984  eV     1   --> A'             
     e( 97 - 97) =     11.41886  eV     1   --> A''            
     e( 98 - 98) =     11.49158  eV     1   --> A''            
     e( 99 - 99) =     11.51056  eV     1   --> A''            
     e(100 -100) =     12.30389  eV     1   --> A'             
     e(101 -101) =     12.31026  eV     1   --> A'             
     e(102 -102) =     12.41116  eV     1   --> A'             
     e(103 -103) =     12.93307  eV     1   --> A''            
     e(104 -104) =     12.97408  eV     1   --> A''            
     e(105 -105) =     13.04563  eV     1   --> A''            
     e(106 -106) =     13.78951  eV     1   --> A'             
     e(107 -107) =     13.81068  eV     1   --> A'             
     e(108 -108) =     14.00358  eV     1   --> A'             
     e(109 -109) =     14.55363  eV     1   --> A'             
     e(110 -110) =     14.59266  eV     1   --> A'             
     e(111 -111) =     14.63133  eV     1   --> A'             
     e(112 -112) =     15.20680  eV     1   --> A'             
     e(113 -113) =     15.40808  eV     1   --> A'             
     e(114 -114) =     15.60297  eV     1   --> A'             
     e(115 -115) =     15.68062  eV     1   --> A''            
     e(116 -116) =     15.70316  eV     1   --> A''            
     e(117 -117) =     15.90990  eV     1   --> A'             
     e(118 -118) =     16.03552  eV     1   --> A'             
     e(119 -119) =     16.22194  eV     1   --> A''            
     e(120 -120) =     16.27464  eV     1   --> A'             

 **************************************************************************

 **************************************************************************

                    xk=(   0.00000,   0.16373,   0.07724  )

     Band symmetry, C_s (m)     point group:

     e(  1 -  1) =    -28.43870  eV     1   --> A'             
     e(  2 -  2) =    -28.43818  eV     1   --> A'             
     e(  3 -  3) =    -28.43798  eV     1   --> A''            
     e(  4 -  4) =    -28.43787  eV     1   --> A'             
     e(  5 -  5) =    -28.43746  eV     1   --> A''            
     e(  6 -  6) =    -28.43715  eV     1   --> A''            
     e(  7 -  7) =    -28.43467  eV     1   --> A'             
     e(  8 -  9) =    -28.43416  eV     2   -->   2 A'             
     e( 10 - 10) =    -28.43395  eV     1   --> A''            
     e( 11 - 12) =    -28.43344  eV     2   -->   2 A''            
     e( 13 - 13) =    -28.37384  eV     1   --> A'             
     e( 14 - 14) =    -28.37366  eV     1   --> A''            
     e( 15 - 15) =    -28.37338  eV     1   --> A'             
     e( 16 - 16) =    -28.37319  eV     1   --> A''            
     e( 17 - 17) =    -28.37303  eV     1   --> A'             
     e( 18 - 18) =    -28.37285  eV     1   --> A''            
     e( 19 - 19) =    -28.36794  eV     1   --> A'             
     e( 20 - 20) =    -28.36774  eV     1   --> A''            
     e( 21 - 22) =    -28.36751  eV     2   -->   2 A'             
     e( 23 - 24) =    -28.36731  eV     2   -->   2 A''            
     e( 25 - 25) =    -28.35162  eV     1   --> A'             
     e( 26 - 26) =    -28.35116  eV     1   --> A'             
     e( 27 - 27) =    -28.35081  eV     1   --> A'             
     e( 28 - 28) =    -28.34519  eV     1   --> A'             
     e( 29 - 30) =    -28.34478  eV     2   -->   2 A'             
     e( 31 - 31) =     -6.80890  eV     1   --> A'             
     e( 32 - 32) =     -6.80865  eV     1   --> A'             
     e( 33 - 33) =     -6.80829  eV     1   --> A'             
     e( 34 - 34) =     -6.68768  eV     1   --> A'             
     e( 35 - 35) =     -6.68738  eV     1   --> A'             
     e( 36 - 36) =     -6.68691  eV     1   --> A'             
     e( 37 - 37) =     -6.67364  eV     1   --> A''            
     e( 38 - 38) =     -6.67339  eV     1   --> A''            
     e( 39 - 39) =     -6.67308  eV     1   --> A''            
     e( 40 - 40) =     -6.60196  eV     1   --> A'             
     e( 41 - 41) =     -6.60171  eV     1   --> A'             
     e( 42 - 42) =     -6.60141  eV     1   --> A'             
     e( 43 - 43) =     -6.59360  eV     1   --> A''            
     e( 44 - 44) =     -6.59336  eV     1   --> A''            
     e( 45 - 45) =     -6.59306  eV     1   --> A''            
     e( 46 - 46) =     -6.59170  eV     1   --> A'             
     e( 47 - 47) =     -6.59135  eV     1   --> A'             
     e( 48 - 48) =     -6.59105  eV     1   --> A'             
     e( 49 - 49) =     -6.57451  eV     1   --> A''            
     e( 50 - 50) =     -6.57426  eV     1   --> A''            
     e( 51 - 51) =     -6.57398  eV     1   --> A''            
     e( 52 - 52) =     -6.47514  eV     1   --> A'             
     e( 53 - 53) =     -6.47483  eV     1   --> A'             
     e( 54 - 54) =     -6.47454  eV     1   --> A'             
     e( 55 - 55) =     -6.46681  eV     1   --> A''            
     e( 56 - 56) =     -6.46659  eV     1   --> A''            
     e( 57 - 57) =     -6.46631  eV     1   --> A''            
     e( 58 - 58) =     -6.39038  eV     1   --> A'             
     e( 59 - 59) =     -6.39015  eV     1   --> A'             
     e( 60 - 60) =     -6.38987  eV     1   --> A'             
     e( 61 - 61) =     -4.14711  eV     1   --> A'             
     e( 62 - 62) =     -4.14586  eV     1   --> A'             
     e( 63 - 63) =     -3.97134  eV     1   --> A'             
     e( 64 - 64) =     -3.95645  eV     1   --> A'             
     e( 65 - 65) =     -3.75523  eV     1   --> A'             
     e( 66 - 66) =     -3.75457  eV     1   --> A'             
     e( 67 - 67) =      1.64333  eV     1   --> A'             
     e( 68 - 68) =      1.64822  eV     1   --> A'             
     e( 69 - 69) =      1.94683  eV     1   --> A'             
     e( 70 - 70) =      3.80159  eV     1   --> A'             
     e( 71 - 71) =      4.32069  eV     1   --> A'             
     e( 72 - 72) =      4.34668  eV     1   --> A'             
     e( 73 - 73) =      5.58416  eV     1   --> A'             
     e( 74 - 74) =      5.58841  eV     1   --> A'             
     e( 75 - 75) =      5.78873  eV     1   --> A'             
     e( 76 - 76) =      5.85852  eV     1   --> A'             
     e( 77 - 77) =      6.23617  eV     1   --> A'             
     e( 78 - 78) =      6.26880  eV     1   --> A'             
     e( 79 - 79) =      6.68952  eV     1   --> A''            
     e( 80 - 80) =      6.71300  eV     1   --> A''            
     e( 81 - 81) =      6.82574  eV     1   --> A''            
     e( 82 - 82) =      6.92750  eV     1   --> A''            
     e( 83 - 83) =      7.05722  eV     1   --> A''            
     e( 84 - 84) =      7.08802  eV     1   --> A''            
     e( 85 - 85) =      7.46938  eV     1   --> A'             
     e( 86 - 86) =      7.49443  eV     1   --> A'             
     e( 87 - 87) =      8.12206  eV     1   --> A'             
     e( 88 - 88) =     10.05785  eV     1   --> A'             
     e( 89 - 89) =     10.09871  eV     1   --> A'             
     e( 90 - 90) =     10.10751  eV     1   --> A'             
     e( 91 - 91) =     10.29741  eV     1   --> A'             
     e( 92 - 92) =     10.35286  eV     1   --> A'             
     e( 93 - 93) =     10.41262  eV     1   --> A'             
     e( 94 - 94) =     11.44665  eV     1   --> A'             
     e( 95 - 95) =     11.49138  eV     1   --> A''            
     e( 96 - 96) =     11.49198  eV     1   --> A'             
     e( 97 - 97) =     11.53821  eV     1   --> A'             
     e( 98 - 98) =     11.56254  eV     1   --> A''            
     e( 99 - 99) =     11.59803  eV     1   --> A''            
     e(100 -100) =     12.32437  eV     1   --> A'             
     e(101 -101) =     12.33905  eV     1   --> A'             
     e(102 -102) =     12.45324  eV     1   --> A'             
     e(103 -103) =     13.06463  eV     1   --> A''            
     e(104 -104) =     13.09610  eV     1   --> A''            
     e(105 -105) =     13.17900  eV     1   --> A''            
     e(106 -106) =     13.78037  eV     1   --> A'             
     e(107 -107) =     13.79220  eV     1   --> A'             
     e(108 -108) =     14.03301  eV     1   --> A'             
     e(109 -109) =     14.40378  eV     1   --> A'             
     e(110 -110) =     14.49187  eV     1   --> A'             
     e(111 -111) =     14.52154  eV     1   --> A'             
     e(112 -112) =     15.23689  eV     1   --> A'             
     e(113 -113) =     15.40242  eV     1   --> A'             
     e(114 -114) =     15.47620  eV     1   --> A'             
     e(115 -115) =     15.68696  eV     1   --> A''            
     e(116 -116) =     15.70634  eV     1   --> A''            
     e(117 -117) =     15.86870  eV     1   --> A'             
     e(118 -118) =     16.04429  eV     1   --> A'             
     e(119 -119) =     16.23354  eV     1   --> A''            
     e(120 -120) =     16.39251  eV     1   --> A'             

 **************************************************************************

 **************************************************************************

                    xk=(   0.00000,   0.18420,   0.07724  )

     Band symmetry, C_s (m)     point group:

     e(  1 -  1) =    -28.43870  eV     1   --> A'             
     e(  2 -  2) =    -28.43818  eV     1   --> A'             
     e(  3 -  4) =    -28.43786  eV     2   --> A'             
     e(  3 -  4) =    -28.43786  eV     2   --> A''            
     e(  5 -  5) =    -28.43729  eV     1   --> A''            
     e(  6 -  6) =    -28.43697  eV     1   --> A''            
     e(  7 -  7) =    -28.43467  eV     1   --> A'             
     e(  8 -  9) =    -28.43416  eV     2   -->   2 A'             
     e( 10 - 10) =    -28.43377  eV     1   --> A''            
     e( 11 - 12) =    -28.43326  eV     2   -->   2 A''            
     e( 13 - 13) =    -28.37390  eV     1   --> A'             
     e( 14 - 14) =    -28.37367  eV     1   --> A''            
     e( 15 - 15) =    -28.37343  eV     1   --> A'             
     e( 16 - 16) =    -28.37321  eV     1   --> A''            
     e( 17 - 17) =    -28.37309  eV     1   --> A'             
     e( 18 - 18) =    -28.37286  eV     1   --> A''            
     e( 19 - 19) =    -28.36800  eV     1   --> A'             
     e( 20 - 20) =    -28.36775  eV     1   --> A''            
     e( 21 - 22) =    -28.36757  eV     2   -->   2 A'             
     e( 23 - 24) =    -28.36732  eV     2   -->   2 A''            
     e( 25 - 25) =    -28.35152  eV     1   --> A'             
     e( 26 - 26) =    -28.35107  eV     1   --> A'             
     e( 27 - 27) =    -28.35071  eV     1   --> A'             
     e( 28 - 28) =    -28.34510  eV     1   --> A'             
     e( 29 - 30) =    -28.34469  eV     2   -->   2 A'             
     e( 31 - 31) =     -6.80840  eV     1   --> A'             
     e( 32 - 32) =     -6.80815  eV     1   --> A'             
     e( 33 - 33) =     -6.80779  eV     1   --> A'             
     e( 34 - 34) =     -6.69114  eV     1   --> A'             
     e( 35 - 35) =     -6.69083  eV     1   --> A'             
     e( 36 - 36) =     -6.69029  eV     1   --> A'             
     e( 37 - 37) =     -6.67381  eV     1   --> A''            
     e( 38 - 38) =     -6.67356  eV     1   --> A''            
     e( 39 - 39) =     -6.67324  eV     1   --> A''            
     e( 40 - 40) =     -6.60274  eV     1   --> A'             
     e( 41 - 41) =     -6.60249  eV     1   --> A'             
     e( 42 - 42) =     -6.60220  eV     1   --> A'             
     e( 43 - 43) =     -6.59473  eV     1   --> A'             
     e( 44 - 44) =     -6.59434  eV     1   --> A'             
     e( 45 - 45) =     -6.59404  eV     1   --> A'             
     e( 46 - 46) =     -6.59242  eV     1   --> A''            
     e( 47 - 47) =     -6.59217  eV     1   --> A''            
     e( 48 - 48) =     -6.59188  eV     1   --> A''            
     e( 49 - 49) =     -6.57340  eV     1   --> A''            
     e( 50 - 50) =     -6.57314  eV     1   --> A''            
     e( 51 - 51) =     -6.57286  eV     1   --> A''            
     e( 52 - 52) =     -6.47691  eV     1   --> A'             
     e( 53 - 53) =     -6.47658  eV     1   --> A'             
     e( 54 - 54) =     -6.47628  eV     1   --> A'             
     e( 55 - 55) =     -6.46706  eV     1   --> A''            
     e( 56 - 56) =     -6.46685  eV     1   --> A''            
     e( 57 - 57) =     -6.46656  eV     1   --> A''            
     e( 58 - 58) =     -6.38840  eV     1   --> A'             
     e( 59 - 59) =     -6.38818  eV     1   --> A'             
     e( 60 - 60) =     -6.38790  eV     1   --> A'             
     e( 61 - 61) =     -4.09255  eV     1   --> A'             
     e( 62 - 62) =     -4.09124  eV     1   --> A'             
     e( 63 - 63) =     -3.91802  eV     1   --> A'             
     e( 64 - 64) =     -3.90402  eV     1   --> A'             
     e( 65 - 65) =     -3.70477  eV     1   --> A'             
     e( 66 - 66) =     -3.70388  eV     1   --> A'             
     e( 67 - 67) =      1.65488  eV     1   --> A'             
     e( 68 - 68) =      1.66206  eV     1   --> A'             
     e( 69 - 69) =      1.93435  eV     1   --> A'             
     e( 70 - 70) =      3.80829  eV     1   --> A'             
     e( 71 - 71) =      4.21564  eV     1   --> A'             
     e( 72 - 72) =      4.25224  eV     1   --> A'             
     e( 73 - 73) =      5.35692  eV     1   --> A'             
     e( 74 - 74) =      5.35866  eV     1   --> A'             
     e( 75 - 75) =      5.57140  eV     1   --> A'             
     e( 76 - 76) =      5.65097  eV     1   --> A'             
     e( 77 - 77) =      6.12901  eV     1   --> A'             
     e( 78 - 78) =      6.16596  eV     1   --> A'             
     e( 79 - 79) =      6.60959  eV     1   --> A''            
     e( 80 - 80) =      6.63011  eV     1   --> A''            
     e( 81 - 81) =      6.75079  eV     1   --> A''            
     e( 82 - 82) =      6.85082  eV     1   --> A''            
     e( 83 - 83) =      6.99043  eV     1   --> A''            
     e( 84 - 84) =      7.01754  eV     1   --> A''            
     e( 85 - 85) =      7.44385  eV     1   --> A'             
     e( 86 - 86) =      7.48385  eV     1   --> A'             
     e( 87 - 87) =      8.02521  eV     1   --> A'             
     e( 88 - 88) =      9.97232  eV     1   --> A'             
     e( 89 - 89) =     10.02124  eV     1   --> A'             
     e( 90 - 90) =     10.13714  eV     1   --> A'             
     e( 91 - 91) =     10.25917  eV     1   --> A'             
     e( 92 - 92) =     10.30165  eV     1   --> A'             
     e( 93 - 93) =     10.38530  eV     1   --> A'             
     e( 94 - 94) =     11.56141  eV     1   --> A''            
     e( 95 - 95) =     11.60129  eV     1   --> A'             
     e( 96 - 96) =     11.62990  eV     1   --> A''            
     e( 97 - 97) =     11.66844  eV     1   --> A'             
     e( 98 - 98) =     11.68607  eV     1   --> A''            
     e( 99 - 99) =     11.71481  eV     1   --> A'             
     e(100 -100) =     12.36324  eV     1   --> A'             
     e(101 -101) =     12.38481  eV     1   --> A'             
     e(102 -102) =     12.49012  eV     1   --> A'             
     e(103 -103) =     13.20541  eV     1   --> A''            
     e(104 -104) =     13.22071  eV     1   --> A''            
     e(105 -105) =     13.32025  eV     1   --> A''            
     e(106 -106) =     13.79543  eV     1   --> A'             
     e(107 -107) =     13.79998  eV     1   --> A'             
     e(108 -108) =     14.04071  eV     1   --> A'             
     e(109 -109) =     14.28619  eV     1   --> A'             
     e(110 -110) =     14.43260  eV     1   --> A'             
     e(111 -111) =     14.47375  eV     1   --> A'             
     e(112 -112) =     15.22585  eV     1   --> A'             
     e(113 -113) =     15.32393  eV     1   --> A'             
     e(114 -114) =     15.35409  eV     1   --> A'             
     e(115 -115) =     15.71535  eV     1   --> A''            
     e(116 -116) =     15.73319  eV     1   --> A''            
     e(117 -117) =     15.75881  eV     1   --> A'             
     e(118 -118) =     16.12141  eV     1   --> A'             
     e(119 -119) =     16.25900  eV     1   --> A''            
     e(120 -120) =     16.56353  eV     1   --> A'             

 **************************************************************************

 **************************************************************************

                    xk=(   0.00000,   0.20467,   0.07724  )

     Band symmetry, C_s (m)     point group:

     e(  1 -  1) =    -28.43869  eV     1   --> A'             
     e(  2 -  2) =    -28.43817  eV     1   --> A'             
     e(  3 -  3) =    -28.43786  eV     1   --> A'             
     e(  4 -  4) =    -28.43762  eV     1   --> A''            
     e(  5 -  5) =    -28.43710  eV     1   --> A''            
     e(  6 -  6) =    -28.43678  eV     1   --> A''            
     e(  7 -  7) =    -28.43466  eV     1   --> A'             
     e(  8 -  9) =    -28.43415  eV     2   -->   2 A'             
     e( 10 - 10) =    -28.43358  eV     1   --> A''            
     e( 11 - 12) =    -28.43307  eV     2   -->   2 A''            
     e( 13 - 13) =    -28.37396  eV     1   --> A'             
     e( 14 - 14) =    -28.37369  eV     1   --> A''            
     e( 15 - 15) =    -28.37349  eV     1   --> A'             
     e( 16 - 17) =    -28.37322  eV     2   --> A'             
     e( 16 - 17) =    -28.37322  eV     2   --> A''            
     e( 18 - 18) =    -28.37288  eV     1   --> A''            
     e( 19 - 19) =    -28.36806  eV     1   --> A'             
     e( 20 - 20) =    -28.36777  eV     1   --> A''            
     e( 21 - 22) =    -28.36763  eV     2   -->   2 A'             
     e( 23 - 24) =    -28.36733  eV     2   -->   2 A''            
     e( 25 - 25) =    -28.35142  eV     1   --> A'             
     e( 26 - 26) =    -28.35096  eV     1   --> A'             
     e( 27 - 27) =    -28.35061  eV     1   --> A'             
     e( 28 - 28) =    -28.34499  eV     1   --> A'             
     e( 29 - 30) =    -28.34459  eV     2   -->   2 A'             
     e( 31 - 31) =     -6.80786  eV     1   --> A'             
     e( 32 - 32) =     -6.80762  eV     1   --> A'             
     e( 33 - 33) =     -6.80726  eV     1   --> A'             
     e( 34 - 34) =     -6.69480  eV     1   --> A'             
     e( 35 - 35) =     -6.69448  eV     1   --> A'             
     e( 36 - 36) =     -6.69388  eV     1   --> A'             
     e( 37 - 37) =     -6.67399  eV     1   --> A''            
     e( 38 - 38) =     -6.67374  eV     1   --> A''            
     e( 39 - 39) =     -6.67343  eV     1   --> A''            
     e( 40 - 40) =     -6.60357  eV     1   --> A'             
     e( 41 - 41) =     -6.60332  eV     1   --> A'             
     e( 42 - 42) =     -6.60302  eV     1   --> A'             
     e( 43 - 43) =     -6.59796  eV     1   --> A'             
     e( 44 - 44) =     -6.59752  eV     1   --> A'             
[...]
     e( 32 - 32) =     -6.79800  eV     1   --> E*             
     e( 33 - 33) =     -6.79764  eV     1   --> E              
     e( 34 - 34) =     -6.74128  eV     1   --> E*             
     e( 35 - 35) =     -6.74099  eV     1   --> E              
     e( 36 - 36) =     -6.74069  eV     1   --> A              
     e( 37 - 37) =     -6.68449  eV     1   --> E              
     e( 38 - 38) =     -6.68424  eV     1   --> A              
     e( 39 - 39) =     -6.68392  eV     1   --> E*             
     e( 40 - 40) =     -6.64081  eV     1   --> E*             
     e( 41 - 41) =     -6.64051  eV     1   --> E              
     e( 42 - 42) =     -6.64025  eV     1   --> A              
     e( 43 - 43) =     -6.60428  eV     1   --> E*             
     e( 44 - 44) =     -6.60403  eV     1   --> E              
     e( 45 - 45) =     -6.60373  eV     1   --> A              
     e( 46 - 46) =     -6.58118  eV     1   --> E              
     e( 47 - 47) =     -6.58093  eV     1   --> A              
     e( 48 - 48) =     -6.58064  eV     1   --> E*             
     e( 49 - 49) =     -6.55889  eV     1   --> E              
     e( 50 - 50) =     -6.55864  eV     1   --> A              
     e( 51 - 51) =     -6.55836  eV     1   --> E*             
     e( 52 - 52) =     -6.48457  eV     1   --> E*             
     e( 53 - 53) =     -6.48435  eV     1   --> E              
     e( 54 - 54) =     -6.48407  eV     1   --> A              
     e( 55 - 55) =     -6.48034  eV     1   --> E              
     e( 56 - 56) =     -6.48012  eV     1   --> A              
     e( 57 - 57) =     -6.47984  eV     1   --> E*             
     e( 58 - 58) =     -6.36325  eV     1   --> A              
     e( 59 - 59) =     -6.36304  eV     1   --> E*             
     e( 60 - 60) =     -6.36276  eV     1   --> E              
     e( 61 - 61) =     -2.63045  eV     1   --> E*             
     e( 62 - 63) =     -2.62968  eV     2   --> A              
     e( 62 - 63) =     -2.62968  eV     2   --> E              
     e( 64 - 64) =     -2.53672  eV     1   --> E*             
     e( 65 - 66) =     -2.53602  eV     2   --> A              
     e( 65 - 66) =     -2.53602  eV     2   --> E              
     e( 67 - 67) =      0.79526  eV     1   --> A              
     e( 68 - 68) =      0.79616  eV     1   --> E*             
     e( 69 - 69) =      0.79633  eV     1   --> E              
     e( 70 - 70) =      1.99768  eV     1   --> A              
     e( 71 - 72) =      1.99869  eV     2   --> E              
     e( 71 - 72) =      1.99869  eV     2   --> E*             
     e( 73 - 73) =      3.87389  eV     1   --> E              
     e( 74 - 74) =      3.87479  eV     1   --> E*             
     e( 75 - 75) =      3.87509  eV     1   --> A              
     e( 76 - 76) =      4.27749  eV     1   --> E              
     e( 77 - 77) =      4.27827  eV     1   --> E*             
     e( 78 - 78) =      4.27866  eV     1   --> A              
     e( 79 - 79) =      5.42661  eV     1   -->   ?
     e( 80 - 80) =      5.42720  eV     1   -->   ?
     e( 81 - 81) =      5.42825  eV     1   -->   ?
     e( 82 - 83) =      5.79662  eV     2   -->   ?
     e( 84 - 84) =      5.79707  eV     1   -->   ?
     e( 85 - 86) =      6.37793  eV     2   -->   ?
     e( 87 - 87) =      6.37856  eV     1   -->   ?
     e( 88 - 88) =      9.61434  eV     1   -->   ?
     e( 89 - 89) =      9.61484  eV     1   -->   ?
     e( 90 - 90) =      9.61577  eV     1   --> E*             
     e( 91 - 91) =     10.19239  eV     1   -->   ?
     e( 92 - 92) =     10.19307  eV     1   -->   ?
     e( 93 - 93) =     10.19326  eV     1   -->   ?
     e( 94 - 94) =     11.76613  eV     1   -->   ?
     e( 95 - 95) =     11.76652  eV     1   -->   ?
     e( 96 - 96) =     11.76668  eV     1   -->   ?
     e( 97 - 97) =     12.49976  eV     1   -->   ?
     e( 98 - 98) =     12.50024  eV     1   -->   ?
     e( 99 - 99) =     12.50118  eV     1   -->   ?
     e(100 -100) =     13.38954  eV     1   -->   ?
     e(101 -101) =     13.39009  eV     1   -->   ?
     e(102 -102) =     13.39028  eV     1   -->   ?
     e(103 -103) =     14.64743  eV     1   -->   ?
     e(104 -104) =     14.64784  eV     1   -->   ?
     e(105 -105) =     14.64831  eV     1   -->   ?
     e(106 -106) =     14.91348  eV     1   -->   ?
     e(107 -107) =     14.91378  eV     1   -->   ?
     e(108 -108) =     14.91404  eV     1   -->   ?
     e(109 -111) =     15.34711  eV     3   --> A              
     e(109 -111) =     15.34711  eV     3   --> E              
     e(109 -111) =     15.34711  eV     3   --> E*             
     e(112 -113) =     15.61574  eV     2   -->   ?
     e(114 -114) =     15.61620  eV     1   -->   ?
     e(115 -115) =     15.84259  eV     1   -->   ?
     e(116 -116) =     15.84284  eV     1   -->   ?
     e(117 -117) =     15.84326  eV     1   -->   ?
     e(118 -118) =     16.08728  eV     1   -->   ?
     e(119 -119) =     16.08742  eV     1   -->   ?
     e(120 -120) =     16.08762  eV     1   -->   ?

 **************************************************************************

 **************************************************************************

                    xk=(   0.31904,   0.55260,   0.01931  )

     Band symmetry, C_3 (3)     point group:

     e(  1 -  1) =    -28.43686  eV     1   --> A              
     e(  2 -  3) =    -28.43635  eV     2   --> E              
     e(  2 -  3) =    -28.43635  eV     2   --> E*             
     e(  4 -  4) =    -28.43602  eV     1   --> E              
     e(  5 -  5) =    -28.43583  eV     1   --> A              
     e(  6 -  6) =    -28.43551  eV     1   --> E*             
     e(  7 -  7) =    -28.43282  eV     1   --> A              
     e(  8 - 10) =    -28.43231  eV     3   -->   2 E              
     e(  8 - 10) =    -28.43231  eV     3   --> E*             
     e( 11 - 12) =    -28.43180  eV     2   --> A              
     e( 11 - 12) =    -28.43180  eV     2   --> E*             
     e( 13 - 14) =    -28.37443  eV     2   --> A              
     e( 13 - 14) =    -28.37443  eV     2   --> E              
     e( 15 - 16) =    -28.37396  eV     2   --> A              
     e( 15 - 16) =    -28.37396  eV     2   --> E*             
     e( 17 - 18) =    -28.37362  eV     2   --> E              
     e( 17 - 18) =    -28.37362  eV     2   --> E*             
     e( 19 - 20) =    -28.36851  eV     2   --> A              
     e( 19 - 20) =    -28.36851  eV     2   --> E              
     e( 21 - 24) =    -28.36807  eV     4   --> A              
     e( 21 - 24) =    -28.36807  eV     4   --> E              
     e( 21 - 24) =    -28.36807  eV     4   -->   2 E*             
     e( 25 - 25) =    -28.34981  eV     1   --> E*             
     e( 26 - 26) =    -28.34935  eV     1   --> E              
     e( 27 - 27) =    -28.34900  eV     1   --> A              
     e( 28 - 28) =    -28.34339  eV     1   --> E*             
     e( 29 - 30) =    -28.34298  eV     2   --> A              
     e( 29 - 30) =    -28.34298  eV     2   --> E              
     e( 31 - 31) =     -6.79824  eV     1   --> A              
     e( 32 - 32) =     -6.79800  eV     1   --> E*             
     e( 33 - 33) =     -6.79764  eV     1   --> E              
     e( 34 - 34) =     -6.74128  eV     1   --> E*             
     e( 35 - 35) =     -6.74099  eV     1   --> E              
     e( 36 - 36) =     -6.74069  eV     1   --> A              
     e( 37 - 37) =     -6.68449  eV     1   --> E              
     e( 38 - 38) =     -6.68424  eV     1   --> A              
     e( 39 - 39) =     -6.68392  eV     1   --> E*             
     e( 40 - 40) =     -6.64081  eV     1   --> E*             
     e( 41 - 41) =     -6.64051  eV     1   --> E              
     e( 42 - 42) =     -6.64025  eV     1   --> A              
     e( 43 - 43) =     -6.60428  eV     1   --> E*             
     e( 44 - 44) =     -6.60403  eV     1   --> E              
     e( 45 - 45) =     -6.60373  eV     1   --> A              
     e( 46 - 46) =     -6.58118  eV     1   --> E              
     e( 47 - 47) =     -6.58093  eV     1   --> A              
     e( 48 - 48) =     -6.58064  eV     1   --> E*             
     e( 49 - 49) =     -6.55889  eV     1   --> E              
     e( 50 - 50) =     -6.55864  eV     1   --> A              
     e( 51 - 51) =     -6.55836  eV     1   --> E*             
     e( 52 - 52) =     -6.48457  eV     1   --> E*             
     e( 53 - 53) =     -6.48435  eV     1   --> E              
     e( 54 - 54) =     -6.48407  eV     1   --> A              
     e( 55 - 55) =     -6.48034  eV     1   --> E              
     e( 56 - 56) =     -6.48012  eV     1   --> A              
     e( 57 - 57) =     -6.47984  eV     1   --> E*             
     e( 58 - 58) =     -6.36325  eV     1   --> A              
     e( 59 - 59) =     -6.36304  eV     1   --> E*             
     e( 60 - 60) =     -6.36276  eV     1   --> E              
     e( 61 - 61) =     -2.63045  eV     1   --> E*             
     e( 62 - 63) =     -2.62968  eV     2   --> A              
     e( 62 - 63) =     -2.62968  eV     2   --> E              
     e( 64 - 64) =     -2.53672  eV     1   --> E*             
     e( 65 - 66) =     -2.53602  eV     2   --> A              
     e( 65 - 66) =     -2.53602  eV     2   --> E              
     e( 67 - 67) =      0.79526  eV     1   --> A              
     e( 68 - 68) =      0.79616  eV     1   --> E*             
     e( 69 - 69) =      0.79633  eV     1   --> E              
     e( 70 - 70) =      1.99768  eV     1   --> A              
     e( 71 - 72) =      1.99869  eV     2   --> E              
     e( 71 - 72) =      1.99869  eV     2   --> E*             
     e( 73 - 73) =      3.87374  eV     1   --> E              
     e( 74 - 74) =      3.87463  eV     1   --> E*             
     e( 75 - 75) =      3.87494  eV     1   --> A              
     e( 76 - 76) =      4.27791  eV     1   --> E              
     e( 77 - 77) =      4.27870  eV     1   --> E*             
     e( 78 - 78) =      4.27908  eV     1   --> A              
     e( 79 - 79) =      5.42329  eV     1   -->   ?
     e( 80 - 80) =      5.42388  eV     1   -->   ?
     e( 81 - 81) =      5.42492  eV     1   -->   ?
     e( 82 - 82) =      5.80214  eV     1   -->   ?
     e( 83 - 83) =      5.80224  eV     1   -->   ?
     e( 84 - 84) =      5.80258  eV     1   -->   ?
     e( 85 - 86) =      6.37500  eV     2   -->   ?
     e( 87 - 87) =      6.37564  eV     1   -->   ?
     e( 88 - 88) =      9.62994  eV     1   --> E              
     e( 89 - 89) =      9.63044  eV     1   --> A              
     e( 90 - 90) =      9.63142  eV     1   --> E*             
     e( 91 - 91) =     10.16295  eV     1   -->   ?
     e( 92 - 92) =     10.16368  eV     1   -->   ?
     e( 93 - 93) =     10.16387  eV     1   -->   ?
     e( 94 - 94) =     11.84898  eV     1   -->   ?
     e( 95 - 95) =     11.84924  eV     1   -->   ?
     e( 96 - 96) =     11.84961  eV     1   -->   ?
     e( 97 - 97) =     12.39171  eV     1   -->   ?
     e( 98 - 98) =     12.39222  eV     1   -->   ?
     e( 99 - 99) =     12.39323  eV     1   -->   ?
     e(100 -100) =     13.42951  eV     1   --> E*             
     e(101 -101) =     13.42992  eV     1   -->   ?
     e(102 -102) =     13.43021  eV     1   -->   ?
     e(103 -103) =     14.65421  eV     1   -->   ?
     e(104 -104) =     14.65467  eV     1   -->   ?
     e(105 -105) =     14.65515  eV     1   -->   ?
     e(106 -106) =     14.95360  eV     1   -->   ?
     e(107 -108) =     14.95408  eV     2   -->   ?
     e(109 -109) =     15.28950  eV     1   -->   ?
     e(110 -111) =     15.28960  eV     2   -->   ?
     e(112 -112) =     15.65869  eV     1   -->   ?
     e(113 -113) =     15.65882  eV     1   -->   ?
     e(114 -114) =     15.65932  eV     1   -->   ?
     e(115 -115) =     15.78839  eV     1   -->   ?
     e(116 -116) =     15.78874  eV     1   -->   ?
     e(117 -117) =     15.78910  eV     1   -->   ?
     e(118 -118) =     16.12886  eV     1   -->   ?
     e(119 -119) =     16.12907  eV     1   -->   ?
     e(120 -120) =     16.12921  eV     1   -->   ?

 **************************************************************************

 **************************************************************************

                    xk=(   0.31904,   0.55260,  -0.00000  )

     Band symmetry, C_3 (3)     point group:

     e(  1 -  1) =    -28.43686  eV     1   --> A              
     e(  2 -  3) =    -28.43635  eV     2   --> E              
     e(  2 -  3) =    -28.43635  eV     2   --> E*             
     e(  4 -  4) =    -28.43602  eV     1   --> E              
     e(  5 -  5) =    -28.43583  eV     1   --> A              
     e(  6 -  6) =    -28.43551  eV     1   --> E*             
     e(  7 -  7) =    -28.43282  eV     1   --> A              
     e(  8 - 10) =    -28.43231  eV     3   -->   2 E              
     e(  8 - 10) =    -28.43231  eV     3   --> E*             
     e( 11 - 12) =    -28.43180  eV     2   --> A              
     e( 11 - 12) =    -28.43180  eV     2   --> E*             
     e( 13 - 14) =    -28.37443  eV     2   --> A              
     e( 13 - 14) =    -28.37443  eV     2   --> E              
     e( 15 - 16) =    -28.37396  eV     2   --> A              
     e( 15 - 16) =    -28.37396  eV     2   --> E*             
     e( 17 - 18) =    -28.37362  eV     2   --> E              
     e( 17 - 18) =    -28.37362  eV     2   --> E*             
     e( 19 - 20) =    -28.36851  eV     2   --> A              
     e( 19 - 20) =    -28.36851  eV     2   --> E              
     e( 21 - 24) =    -28.36807  eV     4   --> A              
     e( 21 - 24) =    -28.36807  eV     4   --> E              
     e( 21 - 24) =    -28.36807  eV     4   -->   2 E*             
     e( 25 - 25) =    -28.34981  eV     1   --> E*             
     e( 26 - 26) =    -28.34935  eV     1   --> E              
     e( 27 - 27) =    -28.34900  eV     1   --> A              
     e( 28 - 28) =    -28.34339  eV     1   --> E*             
     e( 29 - 30) =    -28.34298  eV     2   --> A              
     e( 29 - 30) =    -28.34298  eV     2   --> E              
     e( 31 - 31) =     -6.79824  eV     1   --> A              
     e( 32 - 32) =     -6.79800  eV     1   --> E*             
     e( 33 - 33) =     -6.79764  eV     1   --> E              
     e( 34 - 34) =     -6.74128  eV     1   --> E*             
     e( 35 - 35) =     -6.74099  eV     1   --> E              
     e( 36 - 36) =     -6.74069  eV     1   --> A              
     e( 37 - 37) =     -6.68449  eV     1   --> E              
     e( 38 - 38) =     -6.68424  eV     1   --> A              
     e( 39 - 39) =     -6.68392  eV     1   --> E*             
     e( 40 - 40) =     -6.64081  eV     1   --> E*             
     e( 41 - 41) =     -6.64051  eV     1   --> E              
     e( 42 - 42) =     -6.64025  eV     1   --> A              
     e( 43 - 43) =     -6.60428  eV     1   --> E*             
     e( 44 - 44) =     -6.60403  eV     1   --> E              
     e( 45 - 45) =     -6.60373  eV     1   --> A              
     e( 46 - 46) =     -6.58118  eV     1   --> E              
     e( 47 - 47) =     -6.58093  eV     1   --> A              
     e( 48 - 48) =     -6.58064  eV     1   --> E*             
     e( 49 - 49) =     -6.55889  eV     1   --> E              
     e( 50 - 50) =     -6.55864  eV     1   --> A              
     e( 51 - 51) =     -6.55836  eV     1   --> E*             
     e( 52 - 52) =     -6.48457  eV     1   --> E*             
     e( 53 - 53) =     -6.48435  eV     1   --> E              
     e( 54 - 54) =     -6.48407  eV     1   --> A              
     e( 55 - 55) =     -6.48034  eV     1   --> E              
     e( 56 - 56) =     -6.48012  eV     1   --> A              
     e( 57 - 57) =     -6.47984  eV     1   --> E*             
     e( 58 - 58) =     -6.36325  eV     1   --> A              
     e( 59 - 59) =     -6.36304  eV     1   --> E*             
     e( 60 - 60) =     -6.36276  eV     1   --> E              
     e( 61 - 61) =     -2.63045  eV     1   --> E*             
     e( 62 - 63) =     -2.62968  eV     2   --> A              
     e( 62 - 63) =     -2.62968  eV     2   --> E              
     e( 64 - 64) =     -2.53672  eV     1   --> E*             
     e( 65 - 66) =     -2.53602  eV     2   --> A              
     e( 65 - 66) =     -2.53602  eV     2   --> E              
     e( 67 - 67) =      0.79526  eV     1   --> A              
     e( 68 - 68) =      0.79616  eV     1   --> E*             
     e( 69 - 69) =      0.79633  eV     1   --> E              
     e( 70 - 70) =      1.99768  eV     1   --> A              
     e( 71 - 72) =      1.99870  eV     2   --> E              
     e( 71 - 72) =      1.99870  eV     2   --> E*             
     e( 73 - 73) =      3.87367  eV     1   --> E              
     e( 74 - 74) =      3.87457  eV     1   --> E*             
     e( 75 - 75) =      3.87488  eV     1   --> A              
     e( 76 - 76) =      4.27808  eV     1   --> E              
     e( 77 - 77) =      4.27887  eV     1   --> E*             
     e( 78 - 78) =      4.27926  eV     1   --> A              
     e( 79 - 79) =      5.42194  eV     1   -->   ?
     e( 80 - 80) =      5.42252  eV     1   -->   ?
     e( 81 - 81) =      5.42356  eV     1   -->   ?
     e( 82 - 82) =      5.80441  eV     1   -->   ?
     e( 83 - 83) =      5.80452  eV     1   -->   ?
     e( 84 - 84) =      5.80484  eV     1   -->   ?
     e( 85 - 86) =      6.37378  eV     2   -->   ?
     e( 87 - 87) =      6.37441  eV     1   -->   ?
     e( 88 - 88) =      9.63681  eV     1   --> E              
     e( 89 - 89) =      9.63731  eV     1   --> A              
     e( 90 - 90) =      9.63833  eV     1   --> E*             
     e( 91 - 91) =     10.15052  eV     1   -->   ?
     e( 92 - 92) =     10.15126  eV     1   -->   ?
     e( 93 - 93) =     10.15145  eV     1   -->   ?
     e( 94 - 94) =     11.89221  eV     1   -->   ?
     e( 95 - 95) =     11.89237  eV     1   -->   ?
     e( 96 - 96) =     11.89293  eV     1   -->   ?
     e( 97 - 97) =     12.33927  eV     1   -->   ?
     e( 98 - 98) =     12.33983  eV     1   -->   ?
     e( 99 - 99) =     12.34092  eV     1   -->   ?
     e(100 -100) =     13.44455  eV     1   --> E*             
     e(101 -101) =     13.44491  eV     1   --> A              
     e(102 -102) =     13.44524  eV     1   --> E              
     e(103 -103) =     14.65679  eV     1   -->   ?
     e(104 -104) =     14.65728  eV     1   -->   ?
     e(105 -105) =     14.65776  eV     1   -->   ?
     e(106 -106) =     14.97513  eV     1   -->   ?
     e(107 -107) =     14.97560  eV     1   -->   ?
     e(108 -108) =     14.97580  eV     1   -->   ?
     e(109 -109) =     15.26206  eV     1   -->   ?
     e(110 -110) =     15.26228  eV     1   -->   ?
     e(111 -111) =     15.26239  eV     1   -->   ?
     e(112 -113) =     15.68507  eV     2   -->   ?
     e(114 -114) =     15.68579  eV     1   -->   ?
     e(115 -115) =     15.75808  eV     1   -->   ?
     e(116 -116) =     15.75852  eV     1   -->   ?
     e(117 -117) =     15.75877  eV     1   -->   ?
     e(118 -118) =     16.14502  eV     1   -->   ?
     e(119 -119) =     16.14526  eV     1   -->   ?
     e(120 -120) =     16.14538  eV     1   -->   ?

 **************************************************************************
 
     BANDS        :  4m31.43s CPU     4m43.85s WALL

 
   This run was terminated on:  13:13:44  29Sep2021            

=------------------------------------------------------------------------------=
   JOB DONE.
=------------------------------------------------------------------------------=
