
     Program BANDS v.6.1 (svn rev. 13369) starts on 23Sep2021 at  3:28:46 

     This program is part of the open-source Quantum ESPRESSO suite
     for quantum simulation of materials; please cite
         "P. Giannozzi et al., J. Phys.:Condens. Matter 21 395502 (2009);
          URL http://www.quantum-espresso.org", 
     in publications or presentations arising from this work. More details at
     http://www.quantum-espresso.org/quote

     Parallel version (MPI), running on    48 processors
     R & G space division:  proc/nbgrp/npool/nimage =      48

     Reading data from directory:
     /share/inl/marcel/TB/InSegammap_outdir/InSegammap.save

   Info: using nr1, nr2, nr3 values from input

   Info: using nr1, nr2, nr3 values from input

     IMPORTANT: XC functional enforced from input :
     Exchange-correlation      = SLA+PW+PSX+PSC ( 1  4 10  8 0 0)
     Any further DFT definition will be discarded
     Please, verify this is what you really want

 
     Parallelization info
     --------------------
     sticks:   dense  smooth     PW     G-vecs:    dense   smooth      PW
     Min          50      50     13                12419    12419    1753
     Max          52      52     14                12454    12454    1794
     Sum        2407    2407    649               597307   597307   85311
 
     high-symmetry point:  0.0000 0.0000 0.0789   x coordinate   0.0000
     high-symmetry point:  0.0000 0.5731 0.0789   x coordinate   0.5731
     high-symmetry point:  0.3309 0.5731 0.0789   x coordinate   0.9039
     high-symmetry point:  0.0000 0.0000 0.0789   x coordinate   1.5657
     high-symmetry point:  0.0000 0.0000 0.0000   x coordinate   1.6446
     high-symmetry point:  0.0000 0.5731-0.0000   x coordinate   2.2176
     high-symmetry point:  0.3309 0.5731-0.0000   x coordinate   2.5485
     high-symmetry point:  0.0000 0.0000 0.0000   x coordinate   3.2102
     high-symmetry point:  0.0000 0.5731 0.0789   x coordinate   3.2102
     high-symmetry point:  0.0000 0.5731-0.0000   x coordinate   3.2891
     high-symmetry point:  0.3309 0.5731 0.0789   x coordinate   3.2891
     high-symmetry point:  0.3309 0.5731-0.0000   x coordinate   3.3680

     Plottable bands (eV) written to file InSegammap.bands.dat.gnu
     Bands written to file InSegammap.bands.dat

 **************************************************************************

                    xk=(   0.00000,   0.00000,   0.07889  )

     point group C_3v (3m)  
     there are  3 classes
     the character table:

       E     2C3   3s_v 
A_1    1.00  1.00  1.00
A_2    1.00  1.00 -1.00
E      2.00 -1.00  0.00

     the symmetry operations in each class and the name of the first element:

     E        1
                                                                 
     2C3      2    3
                                                                 
     3s_v     4    5    6
                                                                 

     Band symmetry, C_3v (3m)   point group:

     e(  1 -  1) =     -8.08776  eV     1   --> A_1  L_1       
     e(  2 -  3) =     -8.08734  eV     2   -->   2 A_1  L_1       
     e(  4 -  5) =     -7.87350  eV     2   --> E    L_3       
     e(  6 -  9) =     -7.87325  eV     4   -->   2 E    L_3       
     e( 10 - 15) =     -7.81021  eV     6   -->   3 E    L_3       
     e( 16 - 21) =     -7.74405  eV     6   -->   3 E    L_3       
     e( 22 - 25) =     -7.60550  eV     4   -->   2 E    L_3       
     e( 26 - 27) =     -7.60534  eV     2   --> E    L_3       
     e( 28 - 28) =     -7.60418  eV     1   --> A_1  L_1       
     e( 29 - 30) =     -7.59866  eV     2   -->   2 A_1  L_1       
     e( 31 - 31) =     -6.84174  eV     1   --> A_1  L_1       
     e( 32 - 32) =     -6.84163  eV     1   --> A_1  L_1       
     e( 33 - 33) =     -6.71891  eV     1   --> A_1  L_1       
     e( 34 - 34) =     -6.61887  eV     1   --> A_1  L_1       
     e( 35 - 36) =     -6.48954  eV     2   -->   2 A_1  L_1       
     e( 37 - 38) =      0.31159  eV     2   -->   2 A_1  L_1       
     e( 39 - 39) =      0.56300  eV     1   --> A_1  L_1       
     e( 40 - 40) =      2.31151  eV     1   --> A_1  L_1       
     e( 41 - 42) =      2.90912  eV     2   -->   2 A_1  L_1       
     e( 43 - 44) =      5.23386  eV     2   --> E    L_3       
     e( 45 - 46) =      5.27865  eV     2   --> E    L_3       
     e( 47 - 48) =      5.27878  eV     2   --> E    L_3       
     e( 49 - 50) =      5.36699  eV     2   -->   2 A_1  L_1       
     e( 51 - 52) =      5.43873  eV     2   --> E    L_3       
     e( 53 - 54) =      5.43885  eV     2   --> E    L_3       
     e( 55 - 56) =      5.48592  eV     2   --> E    L_3       
     e( 57 - 57) =      6.57862  eV     1   --> A_1  L_1       
     e( 58 - 58) =      6.85565  eV     1   --> A_1  L_1       
     e( 59 - 60) =      7.92026  eV     2   -->   2 A_1  L_1       
     e( 61 - 62) =      8.59167  eV     2   -->   2 A_1  L_1       
     e( 63 - 63) =      8.60927  eV     1   --> A_1  L_1       
     e( 64 - 67) =     10.74799  eV     4   -->   2 E    L_3       
     e( 68 - 69) =     10.85391  eV     2   --> E    L_3       
     e( 70 - 70) =     11.87587  eV     1   --> A_1  L_1       
     e( 71 - 71) =     11.87604  eV     1   --> A_1  L_1       
     e( 72 - 73) =     11.89859  eV     2   --> E    L_3       
     e( 74 - 77) =     12.08509  eV     4   -->   2 E    L_3       
     e( 78 - 78) =     12.39308  eV     1   --> A_1  L_1       
     e( 79 - 80) =     13.90085  eV     2   -->   2 A_1  L_1       
     e( 81 - 81) =     14.46373  eV     1   --> A_1  L_1       
     e( 82 - 82) =     14.77990  eV     1   --> A_1  L_1       
     e( 83 - 83) =     15.31255  eV     1   --> A_1  L_1       
     e( 84 - 87) =     15.38707  eV     4   -->   2 E    L_3       
     e( 88 - 89) =     15.50003  eV     2   -->   2 A_1  L_1       
     e( 90 - 91) =     15.60805  eV     2   --> E    L_3       
     e( 92 - 92) =     15.67885  eV     1   --> A_1  L_1       
     e( 93 - 93) =     15.67896  eV     1   --> A_1  L_1       
     e( 94 - 95) =     15.94806  eV     2   --> E    L_3       
     e( 96 - 99) =     16.40022  eV     4   -->   2 E    L_3       
     e(100 -101) =     16.56591  eV     2   -->   2 A_1  L_1       
     e(102 -102) =     16.82154  eV     1   --> A_1  L_1       
     e(103 -103) =     17.33834  eV     1   --> A_1  L_1       
     e(104 -107) =     17.69240  eV     4   -->   2 E    L_3       
     e(108 -109) =     18.23234  eV     2   -->   2 A_1  L_1       
     e(110 -111) =     18.52956  eV     2   --> E    L_3       
     e(112 -115) =     18.95682  eV     4   -->   2 E    L_3       
     e(116 -117) =     18.99901  eV     2   --> E    L_3       
     e(118 -119) =     19.47326  eV     2   -->   2 A_1  L_1       
     e(120 -120) =     20.05414  eV     1   --> A_1  L_1       

 **************************************************************************

 **************************************************************************

                    xk=(   0.00000,   0.02123,   0.07889  )

     point group C_s (m)    
     there are  2 classes
     the character table:

       E     s    
A'     1.00  1.00
A''    1.00 -1.00

     the symmetry operations in each class and the name of the first element:

     E        1
                                                                 
     s        2
                                                                 

     Band symmetry, C_s (m)     point group:

     e(  1 -  1) =     -8.08771  eV     1   --> A'             
     e(  2 -  3) =     -8.08729  eV     2   -->   2 A'             
     e(  4 -  6) =     -7.87479  eV     3   -->   3 A'             
     e(  7 -  7) =     -7.87351  eV     1   --> A''            
     e(  8 -  9) =     -7.87326  eV     2   -->   2 A''            
     e( 10 - 10) =     -7.81198  eV     1   --> A'             
     e( 11 - 12) =     -7.81188  eV     2   -->   2 A'             
     e( 13 - 15) =     -7.80993  eV     3   -->   3 A''            
     e( 16 - 18) =     -7.74430  eV     3   -->   3 A'             
     e( 19 - 21) =     -7.74383  eV     3   -->   3 A''            
     e( 22 - 22) =     -7.61362  eV     1   --> A'             
     e( 23 - 24) =     -7.61114  eV     2   -->   2 A'             
     e( 25 - 26) =     -7.60553  eV     2   -->   2 A''            
     e( 27 - 27) =     -7.60537  eV     1   --> A''            
     e( 28 - 28) =     -7.59525  eV     1   --> A'             
     e( 29 - 30) =     -7.59247  eV     2   -->   2 A'             
     e( 31 - 31) =     -6.83769  eV     1   --> A'             
     e( 32 - 32) =     -6.83758  eV     1   --> A'             
     e( 33 - 33) =     -6.71519  eV     1   --> A'             
     e( 34 - 34) =     -6.61518  eV     1   --> A'             
     e( 35 - 36) =     -6.48612  eV     2   -->   2 A'             
     e( 37 - 38) =      0.31386  eV     2   -->   2 A'             
     e( 39 - 39) =      0.56422  eV     1   --> A'             
     e( 40 - 40) =      2.31328  eV     1   --> A'             
     e( 41 - 42) =      2.90630  eV     2   -->   2 A'             
     e( 43 - 43) =      5.21321  eV     1   --> A'             
     e( 44 - 44) =      5.22886  eV     1   --> A''            
     e( 45 - 45) =      5.24966  eV     1   --> A'             
     e( 46 - 46) =      5.25857  eV     1   --> A'             
     e( 47 - 47) =      5.27083  eV     1   --> A''            
     e( 48 - 48) =      5.27717  eV     1   --> A''            
     e( 49 - 49) =      5.29064  eV     1   --> A'             
     e( 50 - 50) =      5.29742  eV     1   --> A'             
     e( 51 - 51) =      5.43152  eV     1   --> A''            
     e( 52 - 52) =      5.43818  eV     1   --> A''            
     e( 53 - 53) =      5.44438  eV     1   --> A'             
     e( 54 - 54) =      5.48234  eV     1   --> A''            
     e( 55 - 55) =      5.49967  eV     1   --> A'             
     e( 56 - 56) =      5.50206  eV     1   --> A'             
     e( 57 - 57) =      6.57718  eV     1   --> A'             
     e( 58 - 58) =      6.89511  eV     1   --> A'             
     e( 59 - 60) =      7.93478  eV     2   -->   2 A'             
     e( 61 - 62) =      8.61341  eV     2   -->   2 A'             
     e( 63 - 63) =      8.62989  eV     1   --> A'             
     e( 64 - 64) =     10.71926  eV     1   --> A'             
     e( 65 - 65) =     10.72981  eV     1   --> A'             
     e( 66 - 66) =     10.74724  eV     1   --> A''            
     e( 67 - 67) =     10.75781  eV     1   --> A''            
     e( 68 - 68) =     10.83365  eV     1   --> A'             
     e( 69 - 69) =     10.85708  eV     1   --> A''            
     e( 70 - 70) =     11.87740  eV     1   --> A'             
     e( 71 - 71) =     11.87777  eV     1   --> A'             
     e( 72 - 72) =     11.87825  eV     1   --> A'             
     e( 73 - 73) =     11.90717  eV     1   --> A''            
     e( 74 - 74) =     12.05874  eV     1   --> A'             
     e( 75 - 75) =     12.07630  eV     1   --> A'             
     e( 76 - 76) =     12.08412  eV     1   --> A''            
     e( 77 - 77) =     12.10166  eV     1   --> A''            
     e( 78 - 78) =     12.39929  eV     1   --> A'             
     e( 79 - 79) =     13.92329  eV     1   --> A'             
     e( 80 - 80) =     13.92456  eV     1   --> A'             
     e( 81 - 81) =     14.48916  eV     1   --> A'             
     e( 82 - 82) =     14.74949  eV     1   --> A'             
     e( 83 - 83) =     15.27256  eV     1   --> A'             
     e( 84 - 84) =     15.31534  eV     1   --> A''            
     e( 85 - 85) =     15.31947  eV     1   --> A'             
     e( 86 - 86) =     15.37222  eV     1   --> A'             
     e( 87 - 87) =     15.44863  eV     1   --> A''            
     e( 88 - 88) =     15.52033  eV     1   --> A'             
     e( 89 - 89) =     15.54269  eV     1   --> A'             
     e( 90 - 90) =     15.55869  eV     1   --> A'             
     e( 91 - 91) =     15.57927  eV     1   --> A''            
     e( 92 - 92) =     15.68057  eV     1   --> A'             
     e( 93 - 93) =     15.68441  eV     1   --> A'             
     e( 94 - 94) =     15.98232  eV     1   --> A''            
     e( 95 - 95) =     16.02897  eV     1   --> A'             
     e( 96 - 96) =     16.22123  eV     1   --> A'             
     e( 97 - 97) =     16.31293  eV     1   --> A''            
     e( 98 - 98) =     16.35602  eV     1   --> A'             
     e( 99 - 99) =     16.49479  eV     1   --> A''            
     e(100 -100) =     16.67038  eV     1   --> A'             
     e(101 -101) =     16.73310  eV     1   --> A'             
     e(102 -102) =     16.87051  eV     1   --> A'             
     e(103 -103) =     17.31061  eV     1   --> A'             
     e(104 -104) =     17.59665  eV     1   --> A''            
     e(105 -105) =     17.61499  eV     1   --> A'             
     e(106 -106) =     17.80897  eV     1   --> A'             
     e(107 -107) =     17.81406  eV     1   --> A''            
     e(108 -108) =     18.24349  eV     1   --> A'             
     e(109 -109) =     18.24416  eV     1   --> A'             
     e(110 -110) =     18.46399  eV     1   --> A'             
     e(111 -111) =     18.50093  eV     1   --> A''            
     e(112 -112) =     18.81201  eV     1   --> A'             
     e(113 -113) =     18.83895  eV     1   --> A''            
     e(114 -114) =     19.03960  eV     1   --> A''            
     e(115 -115) =     19.04127  eV     1   --> A'             
     e(116 -116) =     19.06673  eV     1   --> A'             
     e(117 -117) =     19.09479  eV     1   --> A''            
     e(118 -118) =     19.53234  eV     1   --> A'             
     e(119 -119) =     19.54908  eV     1   --> A'             
     e(120 -120) =     20.07662  eV     1   --> A'             

 **************************************************************************

 **************************************************************************

                    xk=(   0.00000,   0.04245,   0.07889  )

     Band symmetry, C_s (m)     point group:

     e(  1 -  1) =     -8.08756  eV     1   --> A'             
     e(  2 -  3) =     -8.08715  eV     2   -->   2 A'             
     e(  4 -  5) =     -7.87908  eV     2   -->   2 A'             
     e(  6 -  6) =     -7.87859  eV     1   --> A'             
     e(  7 -  7) =     -7.87354  eV     1   --> A''            
     e(  8 -  9) =     -7.87329  eV     2   -->   2 A''            
     e( 10 - 10) =     -7.81752  eV     1   --> A'             
     e( 11 - 11) =     -7.81683  eV     1   --> A'             
     e( 12 - 12) =     -7.81671  eV     1   --> A'             
     e( 13 - 15) =     -7.80909  eV     3   -->   3 A''            
     e( 16 - 17) =     -7.74503  eV     2   -->   2 A'             
     e( 18 - 18) =     -7.74486  eV     1   --> A'             
     e( 19 - 21) =     -7.74319  eV     3   -->   3 A''            
     e( 22 - 22) =     -7.62159  eV     1   --> A'             
     e( 23 - 24) =     -7.61853  eV     2   -->   2 A'             
     e( 25 - 26) =     -7.60563  eV     2   -->   2 A''            
     e( 27 - 27) =     -7.60546  eV     1   --> A''            
     e( 28 - 28) =     -7.58539  eV     1   --> A'             
     e( 29 - 30) =     -7.58350  eV     2   -->   2 A'             
     e( 31 - 31) =     -6.82564  eV     1   --> A'             
     e( 32 - 32) =     -6.82551  eV     1   --> A'             
     e( 33 - 33) =     -6.70412  eV     1   --> A'             
     e( 34 - 34) =     -6.60417  eV     1   --> A'             
     e( 35 - 35) =     -6.47590  eV     1   --> A'             
     e( 36 - 36) =     -6.47580  eV     1   --> A'             
     e( 37 - 38) =      0.32061  eV     2   -->   2 A'             
     e( 39 - 39) =      0.56783  eV     1   --> A'             
     e( 40 - 40) =      2.31851  eV     1   --> A'             
     e( 41 - 41) =      2.89758  eV     1   --> A'             
     e( 42 - 42) =      2.89780  eV     1   --> A'             
     e( 43 - 43) =      5.14660  eV     1   --> A'             
     e( 44 - 44) =      5.14989  eV     1   --> A'             
     e( 45 - 45) =      5.15267  eV     1   --> A'             
     e( 46 - 46) =      5.21405  eV     1   --> A''            
     e( 47 - 47) =      5.22327  eV     1   --> A'             
     e( 48 - 48) =      5.22602  eV     1   --> A'             
     e( 49 - 49) =      5.25360  eV     1   --> A''            
     e( 50 - 50) =      5.26637  eV     1   --> A''            
     e( 51 - 51) =      5.33301  eV     1   --> A'             
     e( 52 - 52) =      5.41637  eV     1   --> A''            
     e( 53 - 53) =      5.42981  eV     1   --> A''            
     e( 54 - 54) =      5.47163  eV     1   --> A''            
     e( 55 - 55) =      5.57265  eV     1   --> A'             
     e( 56 - 56) =      5.57338  eV     1   --> A'             
     e( 57 - 57) =      6.57242  eV     1   --> A'             
     e( 58 - 58) =      7.00067  eV     1   --> A'             
     e( 59 - 59) =      7.97629  eV     1   --> A'             
     e( 60 - 60) =      7.97678  eV     1   --> A'             
     e( 61 - 61) =      8.67653  eV     1   --> A'             
     e( 62 - 62) =      8.67683  eV     1   --> A'             
     e( 63 - 63) =      8.68978  eV     1   --> A'             
     e( 64 - 64) =     10.64670  eV     1   --> A'             
     e( 65 - 65) =     10.66707  eV     1   --> A'             
     e( 66 - 66) =     10.75557  eV     1   --> A''            
     e( 67 - 67) =     10.77513  eV     1   --> A'             
     e( 68 - 68) =     10.77599  eV     1   --> A''            
     e( 69 - 69) =     10.86637  eV     1   --> A''            
     e( 70 - 70) =     11.82035  eV     1   --> A'             
     e( 71 - 71) =     11.88106  eV     1   --> A'             
     e( 72 - 72) =     11.88332  eV     1   --> A'             
     e( 73 - 73) =     11.93271  eV     1   --> A''            
     e( 74 - 74) =     12.00053  eV     1   --> A'             
     e( 75 - 75) =     12.03538  eV     1   --> A'             
     e( 76 - 76) =     12.09869  eV     1   --> A''            
     e( 77 - 77) =     12.13337  eV     1   --> A''            
     e( 78 - 78) =     12.41800  eV     1   --> A'             
     e( 79 - 79) =     13.98169  eV     1   --> A'             
     e( 80 - 80) =     13.99213  eV     1   --> A'             
     e( 81 - 81) =     14.55993  eV     1   --> A'             
     e( 82 - 82) =     14.65552  eV     1   --> A'             
     e( 83 - 83) =     15.12141  eV     1   --> A'             
     e( 84 - 84) =     15.24074  eV     1   --> A''            
     e( 85 - 85) =     15.28601  eV     1   --> A'             
     e( 86 - 86) =     15.36115  eV     1   --> A'             
     e( 87 - 87) =     15.41506  eV     1   --> A'             
     e( 88 - 88) =     15.49251  eV     1   --> A''            
     e( 89 - 89) =     15.50522  eV     1   --> A'             
     e( 90 - 90) =     15.51649  eV     1   --> A''            
     e( 91 - 91) =     15.59050  eV     1   --> A'             
     e( 92 - 92) =     15.70547  eV     1   --> A'             
     e( 93 - 93) =     15.71751  eV     1   --> A'             
     e( 94 - 94) =     16.06090  eV     1   --> A''            
     e( 95 - 95) =     16.06491  eV     1   --> A'             
     e( 96 - 96) =     16.19863  eV     1   --> A'             
     e( 97 - 97) =     16.23687  eV     1   --> A''            
     e( 98 - 98) =     16.31521  eV     1   --> A'             
     e( 99 - 99) =     16.59116  eV     1   --> A''            
     e(100 -100) =     16.78284  eV     1   --> A'             
     e(101 -101) =     16.98261  eV     1   --> A'             
     e(102 -102) =     16.99527  eV     1   --> A'             
     e(103 -103) =     17.23864  eV     1   --> A'             
     e(104 -104) =     17.53526  eV     1   --> A''            
     e(105 -105) =     17.64859  eV     1   --> A'             
     e(106 -106) =     17.90020  eV     1   --> A'             
     e(107 -107) =     17.95269  eV     1   --> A''            
     e(108 -108) =     18.23432  eV     1   --> A'             
     e(109 -109) =     18.26915  eV     1   --> A'             
     e(110 -110) =     18.33034  eV     1   --> A'             
     e(111 -111) =     18.43915  eV     1   --> A''            
     e(112 -112) =     18.74334  eV     1   --> A'             
     e(113 -113) =     18.74801  eV     1   --> A''            
     e(114 -114) =     19.06578  eV     1   --> A'             
     e(115 -115) =     19.13693  eV     1   --> A''            
     e(116 -116) =     19.20911  eV     1   --> A'             
     e(117 -117) =     19.24768  eV     1   --> A''            
     e(118 -118) =     19.66757  eV     1   --> A'             
     e(119 -119) =     19.73884  eV     1   --> A'             
     e(120 -120) =     20.12867  eV     1   --> A'             

 **************************************************************************

 **************************************************************************

                    xk=(   0.00000,   0.06368,   0.07889  )

     Band symmetry, C_s (m)     point group:

     e(  1 -  1) =     -8.08734  eV     1   --> A'             
     e(  2 -  3) =     -8.08694  eV     2   -->   2 A'             
     e(  4 -  4) =     -7.88623  eV     1   --> A'             
     e(  5 -  5) =     -7.88597  eV     1   --> A'             
     e(  6 -  6) =     -7.88482  eV     1   --> A'             
     e(  7 -  7) =     -7.87359  eV     1   --> A''            
     e(  8 -  9) =     -7.87335  eV     2   -->   2 A''            
     e( 10 - 10) =     -7.82638  eV     1   --> A'             
     e( 11 - 11) =     -7.82487  eV     1   --> A'             
     e( 12 - 12) =     -7.82449  eV     1   --> A'             
     e( 13 - 15) =     -7.80771  eV     3   -->   3 A''            
     e( 16 - 17) =     -7.74618  eV     2   -->   2 A'             
     e( 18 - 18) =     -7.74592  eV     1   --> A'             
     e( 19 - 21) =     -7.74213  eV     3   -->   3 A''            
     e( 22 - 22) =     -7.62859  eV     1   --> A'             
     e( 23 - 24) =     -7.62531  eV     2   -->   2 A'             
     e( 25 - 26) =     -7.60579  eV     2   -->   2 A''            
     e( 27 - 27) =     -7.60561  eV     1   --> A''            
     e( 28 - 28) =     -7.57542  eV     1   --> A'             
     e( 29 - 30) =     -7.57419  eV     2   -->   2 A'             
     e( 31 - 31) =     -6.80592  eV     1   --> A'             
     e( 32 - 32) =     -6.80565  eV     1   --> A'             
     e( 33 - 33) =     -6.68588  eV     1   --> A'             
     e( 34 - 34) =     -6.58606  eV     1   --> A'             
     e( 35 - 35) =     -6.45911  eV     1   --> A'             
     e( 36 - 36) =     -6.45890  eV     1   --> A'             
     e( 37 - 37) =      0.33171  eV     1   --> A'             
     e( 38 - 38) =      0.33181  eV     1   --> A'             
     e( 39 - 39) =      0.57362  eV     1   --> A'             
     e( 40 - 40) =      2.32699  eV     1   --> A'             
     e( 41 - 41) =      2.88223  eV     1   --> A'             
     e( 42 - 42) =      2.88300  eV     1   --> A'             
     e( 43 - 43) =      5.00101  eV     1   --> A'             
     e( 44 - 44) =      5.00669  eV     1   --> A'             
     e( 45 - 45) =      5.05481  eV     1   --> A'             
     e( 46 - 46) =      5.14682  eV     1   --> A'             
     e( 47 - 47) =      5.15017  eV     1   --> A'             
     e( 48 - 48) =      5.17929  eV     1   --> A'             
     e( 49 - 49) =      5.18991  eV     1   --> A''            
     e( 50 - 50) =      5.22744  eV     1   --> A''            
     e( 51 - 51) =      5.24679  eV     1   --> A''            
     e( 52 - 52) =      5.39352  eV     1   --> A''            
     e( 53 - 53) =      5.41398  eV     1   --> A''            
     e( 54 - 54) =      5.45395  eV     1   --> A''            
     e( 55 - 55) =      5.63077  eV     1   --> A'             
     e( 56 - 56) =      5.63352  eV     1   --> A'             
     e( 57 - 57) =      6.56333  eV     1   --> A'             
     e( 58 - 58) =      7.14728  eV     1   --> A'             
     e( 59 - 59) =      8.03945  eV     1   --> A'             
     e( 60 - 60) =      8.04119  eV     1   --> A'             
     e( 61 - 61) =      8.77551  eV     1   --> A'             
     e( 62 - 62) =      8.77634  eV     1   --> A'             
     e( 63 - 63) =      8.78345  eV     1   --> A'             
     e( 64 - 64) =     10.53792  eV     1   --> A'             
     e( 65 - 65) =     10.56693  eV     1   --> A'             
     e( 66 - 66) =     10.68440  eV     1   --> A'             
     e( 67 - 67) =     10.77268  eV     1   --> A''            
     e( 68 - 68) =     10.80152  eV     1   --> A''            
     e( 69 - 69) =     10.88115  eV     1   --> A''            
     e( 70 - 70) =     11.73306  eV     1   --> A'             
     e( 71 - 71) =     11.88152  eV     1   --> A'             
     e( 72 - 72) =     11.88200  eV     1   --> A'             
     e( 73 - 73) =     11.92980  eV     1   --> A'             
     e( 74 - 74) =     11.97438  eV     1   --> A'             
     e( 75 - 75) =     11.97464  eV     1   --> A''            
     e( 76 - 76) =     12.12840  eV     1   --> A''            
     e( 77 - 77) =     12.17941  eV     1   --> A''            
     e( 78 - 78) =     12.44936  eV     1   --> A'             
     e( 79 - 79) =     14.05367  eV     1   --> A'             
     e( 80 - 80) =     14.08977  eV     1   --> A'             
     e( 81 - 81) =     14.49381  eV     1   --> A'             
     e( 82 - 82) =     14.68179  eV     1   --> A'             
     e( 83 - 83) =     14.95270  eV     1   --> A'             
     e( 84 - 84) =     15.16968  eV     1   --> A''            
     e( 85 - 85) =     15.17627  eV     1   --> A'             
     e( 86 - 86) =     15.25229  eV     1   --> A'             
     e( 87 - 87) =     15.44799  eV     1   --> A''            
     e( 88 - 88) =     15.45126  eV     1   --> A'             
     e( 89 - 89) =     15.47733  eV     1   --> A'             
     e( 90 - 90) =     15.51376  eV     1   --> A''            
     e( 91 - 91) =     15.53395  eV     1   --> A'             
     e( 92 - 92) =     15.65866  eV     1   --> A'             
     e( 93 - 93) =     15.77722  eV     1   --> A'             
     e( 94 - 94) =     16.08629  eV     1   --> A'             
     e( 95 - 95) =     16.15370  eV     1   --> A''            
     e( 96 - 96) =     16.17359  eV     1   --> A''            
     e( 97 - 97) =     16.36652  eV     1   --> A'             
     e( 98 - 98) =     16.39440  eV     1   --> A'             
     e( 99 - 99) =     16.68298  eV     1   --> A''            
     e(100 -100) =     16.84676  eV     1   --> A'             
     e(101 -101) =     17.07652  eV     1   --> A'             
     e(102 -102) =     17.22425  eV     1   --> A'             
     e(103 -103) =     17.23000  eV     1   --> A'             
     e(104 -104) =     17.51568  eV     1   --> A''            
     e(105 -105) =     17.81148  eV     1   --> A'             
     e(106 -106) =     17.94648  eV     1   --> A'             
     e(107 -107) =     18.09809  eV     1   --> A''            
     e(108 -108) =     18.12738  eV     1   --> A'             
     e(109 -109) =     18.19451  eV     1   --> A'             
     e(110 -110) =     18.30466  eV     1   --> A'             
     e(111 -111) =     18.37752  eV     1   --> A''            
     e(112 -112) =     18.69389  eV     1   --> A''            
     e(113 -113) =     18.86850  eV     1   --> A'             
     e(114 -114) =     19.09672  eV     1   --> A'             
     e(115 -115) =     19.25640  eV     1   --> A''            
     e(116 -116) =     19.36809  eV     1   --> A'             
     e(117 -117) =     19.41138  eV     1   --> A''            
     e(118 -118) =     19.84303  eV     1   --> A'             
     e(119 -119) =     19.96712  eV     1   --> A'             
     e(120 -120) =     20.16524  eV     1   --> A'             

 **************************************************************************

 **************************************************************************

                    xk=(   0.00000,   0.08490,   0.07889  )

     Band symmetry, C_s (m)     point group:

     e(  1 -  1) =     -8.08708  eV     1   --> A'             
     e(  2 -  3) =     -8.08668  eV     2   -->   2 A'             
     e(  4 -  4) =     -7.89589  eV     1   --> A'             
     e(  5 -  5) =     -7.89527  eV     1   --> A'             
     e(  6 -  6) =     -7.89327  eV     1   --> A'             
     e(  7 -  7) =     -7.87366  eV     1   --> A''            
     e(  8 -  9) =     -7.87343  eV     2   -->   2 A''            
     e( 10 - 10) =     -7.83805  eV     1   --> A'             
     e( 11 - 11) =     -7.83562  eV     1   --> A'             
     e( 12 - 12) =     -7.83480  eV     1   --> A'             
     e( 13 - 15) =     -7.80580  eV     3   -->   3 A''            
     e( 16 - 16) =     -7.74766  eV     1   --> A'             
     e( 17 - 17) =     -7.74754  eV     1   --> A'             
     e( 18 - 18) =     -7.74731  eV     1   --> A'             
     e( 19 - 21) =     -7.74066  eV     3   -->   3 A''            
     e( 22 - 22) =     -7.63460  eV     1   --> A'             
     e( 23 - 23) =     -7.63131  eV     1   --> A'             
     e( 24 - 24) =     -7.63120  eV     1   --> A'             
     e( 25 - 26) =     -7.60600  eV     2   -->   2 A''            
     e( 27 - 27) =     -7.60582  eV     1   --> A''            
     e( 28 - 28) =     -7.56555  eV     1   --> A'             
     e( 29 - 30) =     -7.56488  eV     2   -->   2 A'             
     e( 31 - 31) =     -6.77897  eV     1   --> A'             
     e( 32 - 32) =     -6.77841  eV     1   --> A'             
     e( 33 - 33) =     -6.66082  eV     1   --> A'             
     e( 34 - 34) =     -6.56117  eV     1   --> A'             
     e( 35 - 35) =     -6.43603  eV     1   --> A'             
     e( 36 - 36) =     -6.43559  eV     1   --> A'             
     e( 37 - 37) =      0.34689  eV     1   --> A'             
     e( 38 - 38) =      0.34711  eV     1   --> A'             
     e( 39 - 39) =      0.58126  eV     1   --> A'             
     e( 40 - 40) =      2.33833  eV     1   --> A'             
     e( 41 - 41) =      2.85913  eV     1   --> A'             
     e( 42 - 42) =      2.86103  eV     1   --> A'             
     e( 43 - 43) =      4.83490  eV     1   --> A'             
     e( 44 - 44) =      4.85051  eV     1   --> A'             
     e( 45 - 45) =      4.91797  eV     1   --> A'             
     e( 46 - 46) =      5.01217  eV     1   --> A'             
     e( 47 - 47) =      5.05082  eV     1   --> A'             
     e( 48 - 48) =      5.06032  eV     1   --> A'             
     e( 49 - 49) =      5.15721  eV     1   --> A''            
     e( 50 - 50) =      5.19298  eV     1   --> A''            
     e( 51 - 51) =      5.21912  eV     1   --> A''            
     e( 52 - 52) =      5.36332  eV     1   --> A''            
     e( 53 - 53) =      5.39112  eV     1   --> A''            
     e( 54 - 54) =      5.42958  eV     1   --> A''            
     e( 55 - 55) =      5.67534  eV     1   --> A'             
     e( 56 - 56) =      5.68298  eV     1   --> A'             
     e( 57 - 57) =      6.54869  eV     1   --> A'             
     e( 58 - 58) =      7.31417  eV     1   --> A'             
     e( 59 - 59) =      8.11682  eV     1   --> A'             
     e( 60 - 60) =      8.12126  eV     1   --> A'             
     e( 61 - 61) =      8.90250  eV     1   --> A'             
     e( 62 - 62) =      8.90276  eV     1   --> A'             
     e( 63 - 63) =      8.90397  eV     1   --> A'             
     e( 64 - 64) =     10.40266  eV     1   --> A'             
     e( 65 - 65) =     10.43878  eV     1   --> A'             
     e( 66 - 66) =     10.56984  eV     1   --> A'             
     e( 67 - 67) =     10.79775  eV     1   --> A''            
     e( 68 - 68) =     10.83291  eV     1   --> A''            
     e( 69 - 69) =     10.90042  eV     1   --> A''            
     e( 70 - 70) =     11.62708  eV     1   --> A'             
     e( 71 - 71) =     11.79996  eV     1   --> A'             
     e( 72 - 72) =     11.84456  eV     1   --> A'             
     e( 73 - 73) =     11.92942  eV     1   --> A'             
     e( 74 - 74) =     11.93913  eV     1   --> A'             
     e( 75 - 75) =     12.03201  eV     1   --> A''            
     e( 76 - 76) =     12.17243  eV     1   --> A''            
     e( 77 - 77) =     12.23852  eV     1   --> A''            
     e( 78 - 78) =     12.49347  eV     1   --> A'             
     e( 79 - 79) =     14.10644  eV     1   --> A'             
     e( 80 - 80) =     14.19040  eV     1   --> A'             
     e( 81 - 81) =     14.31148  eV     1   --> A'             
     e( 82 - 82) =     14.77353  eV     1   --> A'             
     e( 83 - 83) =     14.81716  eV     1   --> A'             
     e( 84 - 84) =     15.05795  eV     1   --> A'             
     e( 85 - 85) =     15.09847  eV     1   --> A'             
     e( 86 - 86) =     15.10737  eV     1   --> A''            
     e( 87 - 87) =     15.38671  eV     1   --> A''            
     e( 88 - 88) =     15.41467  eV     1   --> A'             
     e( 89 - 89) =     15.45769  eV     1   --> A'             
     e( 90 - 90) =     15.50458  eV     1   --> A'             
     e( 91 - 91) =     15.51261  eV     1   --> A''            
     e( 92 - 92) =     15.62707  eV     1   --> A'             
     e( 93 - 93) =     15.84359  eV     1   --> A'             
     e( 94 - 94) =     16.12190  eV     1   --> A''            
     e( 95 - 95) =     16.24502  eV     1   --> A''            
     e( 96 - 96) =     16.26645  eV     1   --> A'             
     e( 97 - 97) =     16.49773  eV     1   --> A'             
     e( 98 - 98) =     16.57605  eV     1   --> A'             
     e( 99 - 99) =     16.76365  eV     1   --> A''            
     e(100 -100) =     16.88745  eV     1   --> A'             
     e(101 -101) =     17.00306  eV     1   --> A'             
     e(102 -102) =     17.37438  eV     1   --> A'             
     e(103 -103) =     17.45152  eV     1   --> A'             
     e(104 -104) =     17.54232  eV     1   --> A''            
     e(105 -105) =     17.85813  eV     1   --> A'             
     e(106 -106) =     18.05072  eV     1   --> A'             
     e(107 -107) =     18.10103  eV     1   --> A'             
     e(108 -108) =     18.10929  eV     1   --> A'             
     e(109 -109) =     18.23697  eV     1   --> A''            
     e(110 -110) =     18.33510  eV     1   --> A''            
     e(111 -111) =     18.36098  eV     1   --> A'             
     e(112 -112) =     18.69041  eV     1   --> A''            
     e(113 -113) =     19.10816  eV     1   --> A'             
     e(114 -114) =     19.15940  eV     1   --> A'             
     e(115 -115) =     19.37614  eV     1   --> A''            
     e(116 -116) =     19.51873  eV     1   --> A'             
     e(117 -117) =     19.58223  eV     1   --> A''            
     e(118 -118) =     20.02560  eV     1   --> A'             
     e(119 -119) =     20.13837  eV     1   --> A'             
     e(120 -120) =     20.19632  eV     1   --> A'             

 **************************************************************************

 **************************************************************************

                    xk=(   0.00000,   0.10613,   0.07889  )

     Band symmetry, C_s (m)     point group:

     e(  1 -  1) =     -8.08682  eV     1   --> A'             
     e(  2 -  3) =     -8.08644  eV     2   -->   2 A'             
     e(  4 -  4) =     -7.90772  eV     1   --> A'             
     e(  5 -  5) =     -7.90653  eV     1   --> A'             
     e(  6 -  6) =     -7.90371  eV     1   --> A'             
     e(  7 -  7) =     -7.87377  eV     1   --> A''            
     e(  8 -  9) =     -7.87354  eV     2   -->   2 A''            
     e( 10 - 10) =     -7.85194  eV     1   --> A'             
     e( 11 - 11) =     -7.84865  eV     1   --> A'             
     e( 12 - 12) =     -7.84716  eV     1   --> A'             
     e( 13 - 15) =     -7.80339  eV     3   -->   3 A''            
     e( 16 - 16) =     -7.74938  eV     1   --> A'             
     e( 17 - 17) =     -7.74920  eV     1   --> A'             
     e( 18 - 18) =     -7.74895  eV     1   --> A'             
     e( 19 - 21) =     -7.73878  eV     3   -->   3 A''            
     e( 22 - 22) =     -7.63974  eV     1   --> A'             
     e( 23 - 23) =     -7.63655  eV     1   --> A'             
     e( 24 - 24) =     -7.63640  eV     1   --> A'             
     e( 25 - 26) =     -7.60627  eV     2   -->   2 A''            
     e( 27 - 27) =     -7.60608  eV     1   --> A''            
     e( 28 - 28) =     -7.55596  eV     1   --> A'             
     e( 29 - 30) =     -7.55572  eV     2   -->   2 A'             
     e( 31 - 31) =     -6.74533  eV     1   --> A'             
     e( 32 - 32) =     -6.74430  eV     1   --> A'             
     e( 33 - 33) =     -6.62933  eV     1   --> A'             
     e( 34 - 34) =     -6.52992  eV     1   --> A'             
     e( 35 - 35) =     -6.40703  eV     1   --> A'             
     e( 36 - 36) =     -6.40621  eV     1   --> A'             
     e( 37 - 37) =      0.36580  eV     1   --> A'             
     e( 38 - 38) =      0.36623  eV     1   --> A'             
     e( 39 - 39) =      0.59029  eV     1   --> A'             
     e( 40 - 40) =      2.35192  eV     1   --> A'             
     e( 41 - 41) =      2.82678  eV     1   --> A'             
     e( 42 - 42) =      2.83068  eV     1   --> A'             
     e( 43 - 43) =      4.65617  eV     1   --> A'             
     e( 44 - 44) =      4.68303  eV     1   --> A'             
     e( 45 - 45) =      4.74095  eV     1   --> A'             
     e( 46 - 46) =      4.85312  eV     1   --> A'             
     e( 47 - 47) =      4.94463  eV     1   --> A'             
     e( 48 - 48) =      4.96066  eV     1   --> A'             
     e( 49 - 49) =      5.11690  eV     1   --> A''            
     e( 50 - 50) =      5.15109  eV     1   --> A''            
     e( 51 - 51) =      5.18422  eV     1   --> A''            
     e( 52 - 52) =      5.32630  eV     1   --> A''            
     e( 53 - 53) =      5.36176  eV     1   --> A''            
     e( 54 - 54) =      5.39892  eV     1   --> A''            
     e( 55 - 55) =      5.70913  eV     1   --> A'             
     e( 56 - 56) =      5.72303  eV     1   --> A'             
     e( 57 - 57) =      6.52742  eV     1   --> A'             
     e( 58 - 58) =      7.48771  eV     1   --> A'             
     e( 59 - 59) =      8.20007  eV     1   --> A'             
     e( 60 - 60) =      8.20949  eV     1   --> A'             
     e( 61 - 61) =      9.03751  eV     1   --> A'             
     e( 62 - 62) =      9.04821  eV     1   --> A'             
     e( 63 - 63) =      9.05011  eV     1   --> A'             
     e( 64 - 64) =     10.25090  eV     1   --> A'             
     e( 65 - 65) =     10.29201  eV     1   --> A'             
     e( 66 - 66) =     10.44081  eV     1   --> A'             
     e( 67 - 67) =     10.82961  eV     1   --> A''            
     e( 68 - 68) =     10.86833  eV     1   --> A''            
     e( 69 - 69) =     10.92286  eV     1   --> A''            
     e( 70 - 70) =     11.51376  eV     1   --> A'             
     e( 71 - 71) =     11.69108  eV     1   --> A'             
     e( 72 - 72) =     11.75724  eV     1   --> A'             
     e( 73 - 73) =     11.95230  eV     1   --> A'             
     e( 74 - 74) =     11.95811  eV     1   --> A'             
     e( 75 - 75) =     12.10355  eV     1   --> A''            
     e( 76 - 76) =     12.22965  eV     1   --> A''            
     e( 77 - 77) =     12.30896  eV     1   --> A''            
     e( 78 - 78) =     12.55014  eV     1   --> A'             
     e( 79 - 79) =     14.10774  eV     1   --> A'             
     e( 80 - 80) =     14.11755  eV     1   --> A'             
     e( 81 - 81) =     14.24852  eV     1   --> A'             
     e( 82 - 82) =     14.59228  eV     1   --> A'             
     e( 83 - 83) =     14.88746  eV     1   --> A'             
     e( 84 - 84) =     14.96313  eV     1   --> A'             
     e( 85 - 85) =     15.02282  eV     1   --> A'             
     e( 86 - 86) =     15.05806  eV     1   --> A''            
     e( 87 - 87) =     15.31793  eV     1   --> A'             
     e( 88 - 88) =     15.33874  eV     1   --> A''            
     e( 89 - 89) =     15.40312  eV     1   --> A'             
     e( 90 - 90) =     15.43807  eV     1   --> A'             
     e( 91 - 91) =     15.49461  eV     1   --> A''            
     e( 92 - 92) =     15.79154  eV     1   --> A'             
     e( 93 - 93) =     15.90865  eV     1   --> A'             
     e( 94 - 94) =     16.07961  eV     1   --> A''            
     e( 95 - 95) =     16.32583  eV     1   --> A''            
     e( 96 - 96) =     16.50890  eV     1   --> A'             
     e( 97 - 97) =     16.66304  eV     1   --> A'             
     e( 98 - 98) =     16.68396  eV     1   --> A'             
     e( 99 - 99) =     16.82750  eV     1   --> A''            
     e(100 -100) =     16.92488  eV     1   --> A'             
     e(101 -101) =     17.01723  eV     1   --> A'             
     e(102 -102) =     17.48222  eV     1   --> A'             
     e(103 -103) =     17.61069  eV     1   --> A'             
     e(104 -104) =     17.61497  eV     1   --> A''            
     e(105 -105) =     17.69170  eV     1   --> A'             
     e(106 -106) =     18.11144  eV     1   --> A'             
     e(107 -107) =     18.23115  eV     1   --> A'             
     e(108 -108) =     18.26807  eV     1   --> A'             
     e(109 -109) =     18.32280  eV     1   --> A''            
     e(110 -110) =     18.35632  eV     1   --> A''            
     e(111 -111) =     18.49621  eV     1   --> A'             
     e(112 -112) =     18.75024  eV     1   --> A''            
     e(113 -113) =     19.25543  eV     1   --> A'             
     e(114 -114) =     19.38116  eV     1   --> A'             
     e(115 -115) =     19.48043  eV     1   --> A''            
     e(116 -116) =     19.63366  eV     1   --> A'             
     e(117 -117) =     19.75669  eV     1   --> A''            
     e(118 -118) =     19.94861  eV     1   --> A'             
     e(119 -119) =     20.06925  eV     1   --> A'             
     e(120 -120) =     20.33237  eV     1   --> A'             

 **************************************************************************

 **************************************************************************

                    xk=(   0.00000,   0.12735,   0.07889  )

     Band symmetry, C_s (m)     point group:

     e(  1 -  1) =     -8.08663  eV     1   --> A'             
     e(  2 -  3) =     -8.08628  eV     2   -->   2 A'             
     e(  4 -  4) =     -7.92126  eV     1   --> A'             
     e(  5 -  5) =     -7.91933  eV     1   --> A'             
     e(  6 -  6) =     -7.91582  eV     1   --> A'             
     e(  7 -  7) =     -7.87390  eV     1   --> A''            
     e(  8 -  8) =     -7.87368  eV     1   --> A''            
     e(  9 -  9) =     -7.87358  eV     1   --> A''            
     e( 10 - 10) =     -7.86742  eV     1   --> A'             
     e( 11 - 11) =     -7.86346  eV     1   --> A'             
     e( 12 - 12) =     -7.86111  eV     1   --> A'             
     e( 13 - 15) =     -7.80052  eV     3   -->   3 A''            
     e( 16 - 16) =     -7.75126  eV     1   --> A'             
     e( 17 - 17) =     -7.75103  eV     1   --> A'             
     e( 18 - 18) =     -7.75078  eV     1   --> A'             
     e( 19 - 21) =     -7.73651  eV     3   -->   3 A''            
     e( 22 - 22) =     -7.64412  eV     1   --> A'             
     e( 23 - 23) =     -7.64112  eV     1   --> A'             
     e( 24 - 24) =     -7.64093  eV     1   --> A'             
     e( 25 - 26) =     -7.60658  eV     2   -->   2 A''            
     e( 27 - 27) =     -7.60639  eV     1   --> A''            
     e( 28 - 30) =     -7.54681  eV     3   -->   3 A'             
     e( 31 - 31) =     -6.70557  eV     1   --> A'             
     e( 32 - 32) =     -6.70390  eV     1   --> A'             
     e( 33 - 33) =     -6.59190  eV     1   --> A'             
     e( 34 - 34) =     -6.49279  eV     1   --> A'             
     e( 35 - 35) =     -6.37254  eV     1   --> A'             
     e( 36 - 36) =     -6.37118  eV     1   --> A'             
     e( 37 - 37) =      0.38797  eV     1   --> A'             
     e( 38 - 38) =      0.38874  eV     1   --> A'             
     e( 39 - 39) =      0.60008  eV     1   --> A'             
     e( 40 - 40) =      2.36684  eV     1   --> A'             
     e( 41 - 41) =      2.78348  eV     1   --> A'             
     e( 42 - 42) =      2.79055  eV     1   --> A'             
     e( 43 - 43) =      4.46888  eV     1   --> A'             
     e( 44 - 44) =      4.50785  eV     1   --> A'             
     e( 45 - 45) =      4.54231  eV     1   --> A'             
     e( 46 - 46) =      4.69848  eV     1   --> A'             
     e( 47 - 47) =      4.83575  eV     1   --> A'             
     e( 48 - 48) =      4.85800  eV     1   --> A'             
     e( 49 - 49) =      5.07004  eV     1   --> A''            
     e( 50 - 50) =      5.10274  eV     1   --> A''            
     e( 51 - 51) =      5.14306  eV     1   --> A''            
     e( 52 - 52) =      5.28314  eV     1   --> A''            
     e( 53 - 53) =      5.32658  eV     1   --> A''            
     e( 54 - 54) =      5.36252  eV     1   --> A''            
     e( 55 - 55) =      5.73386  eV     1   --> A'             
     e( 56 - 56) =      5.75550  eV     1   --> A'             
     e( 57 - 57) =      6.49861  eV     1   --> A'             
     e( 58 - 58) =      7.65895  eV     1   --> A'             
     e( 59 - 59) =      8.28069  eV     1   --> A'             
     e( 60 - 60) =      8.29854  eV     1   --> A'             
     e( 61 - 61) =      9.17522  eV     1   --> A'             
     e( 62 - 62) =      9.20206  eV     1   --> A'             
     e( 63 - 63) =      9.20400  eV     1   --> A'             
     e( 64 - 64) =     10.09217  eV     1   --> A'             
     e( 65 - 65) =     10.13476  eV     1   --> A'             
     e( 66 - 66) =     10.30724  eV     1   --> A'             
     e( 67 - 67) =     10.86678  eV     1   --> A''            
     e( 68 - 68) =     10.90575  eV     1   --> A''            
     e( 69 - 69) =     10.94694  eV     1   --> A''            
     e( 70 - 70) =     11.40443  eV     1   --> A'             
     e( 71 - 71) =     11.58422  eV     1   --> A'             
     e( 72 - 72) =     11.66247  eV     1   --> A'             
     e( 73 - 73) =     11.98239  eV     1   --> A'             
     e( 74 - 74) =     11.99806  eV     1   --> A'             
     e( 75 - 75) =     12.18769  eV     1   --> A''            
     e( 76 - 76) =     12.29858  eV     1   --> A''            
     e( 77 - 77) =     12.38856  eV     1   --> A''            
     e( 78 - 78) =     12.61876  eV     1   --> A'             
     e( 79 - 79) =     13.92484  eV     1   --> A'             
     e( 80 - 80) =     14.04650  eV     1   --> A'             
     e( 81 - 81) =     14.21832  eV     1   --> A'             
     e( 82 - 82) =     14.41763  eV     1   --> A'             
     e( 83 - 83) =     14.76107  eV     1   --> A'             
     e( 84 - 84) =     14.90869  eV     1   --> A'             
     e( 85 - 85) =     15.02530  eV     1   --> A''            
     e( 86 - 86) =     15.13489  eV     1   --> A'             
     e( 87 - 87) =     15.14040  eV     1   --> A'             
     e( 88 - 88) =     15.30767  eV     1   --> A''            
     e( 89 - 89) =     15.38992  eV     1   --> A'             
     e( 90 - 90) =     15.46789  eV     1   --> A''            
     e( 91 - 91) =     15.52270  eV     1   --> A'             
     e( 92 - 92) =     15.93413  eV     1   --> A'             
     e( 93 - 93) =     15.97796  eV     1   --> A'             
     e( 94 - 94) =     16.04621  eV     1   --> A''            
     e( 95 - 95) =     16.39070  eV     1   --> A''            
     e( 96 - 96) =     16.66595  eV     1   --> A'             
     e( 97 - 97) =     16.77922  eV     1   --> A'             
     e( 98 - 98) =     16.87160  eV     1   --> A''            
     e( 99 - 99) =     16.89439  eV     1   --> A'             
     e(100 -100) =     16.97181  eV     1   --> A'             
     e(101 -101) =     17.12953  eV     1   --> A'             
     e(102 -102) =     17.49536  eV     1   --> A'             
     e(103 -103) =     17.53958  eV     1   --> A'             
     e(104 -104) =     17.72916  eV     1   --> A''            
     e(105 -105) =     17.77082  eV     1   --> A'             
     e(106 -106) =     18.24836  eV     1   --> A'             
     e(107 -107) =     18.34695  eV     1   --> A''            
     e(108 -108) =     18.38098  eV     1   --> A'             
     e(109 -109) =     18.41312  eV     1   --> A'             
     e(110 -110) =     18.45929  eV     1   --> A''            
     e(111 -111) =     18.76672  eV     1   --> A'             
     e(112 -112) =     18.86633  eV     1   --> A''            
     e(113 -113) =     19.38029  eV     1   --> A'             
     e(114 -114) =     19.55706  eV     1   --> A''            
     e(115 -115) =     19.56563  eV     1   --> A'             
     e(116 -116) =     19.66018  eV     1   --> A'             
     e(117 -117) =     19.81330  eV     1   --> A'             
     e(118 -118) =     19.93106  eV     1   --> A''            
     e(119 -119) =     20.04975  eV     1   --> A'             
     e(120 -120) =     20.57423  eV     1   --> A'             

 **************************************************************************

 **************************************************************************

                    xk=(   0.00000,   0.14858,   0.07889  )

     Band symmetry, C_s (m)     point group:

     e(  1 -  1) =     -8.08659  eV     1   --> A'             
     e(  2 -  3) =     -8.08630  eV     2   -->   2 A'             
     e(  4 -  4) =     -7.93603  eV     1   --> A'             
     e(  5 -  5) =     -7.93320  eV     1   --> A'             
     e(  6 -  6) =     -7.92928  eV     1   --> A'             
     e(  7 -  7) =     -7.88390  eV     1   --> A'             
     e(  8 -  8) =     -7.87958  eV     1   --> A'             
     e(  9 -  9) =     -7.87620  eV     1   --> A'             
     e( 10 - 10) =     -7.87408  eV     1   --> A''            
     e( 11 - 11) =     -7.87387  eV     1   --> A''            
     e( 12 - 12) =     -7.87375  eV     1   --> A''            
     e( 13 - 15) =     -7.79723  eV     3   -->   3 A''            
     e( 16 - 16) =     -7.75325  eV     1   --> A'             
     e( 17 - 17) =     -7.75299  eV     1   --> A'             
     e( 18 - 18) =     -7.75274  eV     1   --> A'             
     e( 19 - 21) =     -7.73388  eV     3   -->   3 A''            
     e( 22 - 22) =     -7.64790  eV     1   --> A'             
     e( 23 - 23) =     -7.64512  eV     1   --> A'             
     e( 24 - 24) =     -7.64490  eV     1   --> A'             
     e( 25 - 25) =     -7.60694  eV     1   --> A''            
     e( 26 - 27) =     -7.60684  eV     2   -->   2 A''            
     e( 28 - 29) =     -7.53821  eV     2   -->   2 A'             
     e( 30 - 30) =     -7.53789  eV     1   --> A'             
     e( 31 - 31) =     -6.66030  eV     1   --> A'             
     e( 32 - 32) =     -6.65780  eV     1   --> A'             
     e( 33 - 33) =     -6.54905  eV     1   --> A'             
     e( 34 - 34) =     -6.45031  eV     1   --> A'             
     e( 35 - 35) =     -6.33306  eV     1   --> A'             
     e( 36 - 36) =     -6.33099  eV     1   --> A'             
     e( 37 - 37) =      0.41278  eV     1   --> A'             
     e( 38 - 38) =      0.41406  eV     1   --> A'             
     e( 39 - 39) =      0.60986  eV     1   --> A'             
     e( 40 - 40) =      2.38170  eV     1   --> A'             
     e( 41 - 41) =      2.72751  eV     1   --> A'             
     e( 42 - 42) =      2.73922  eV     1   --> A'             
     e( 43 - 43) =      4.27693  eV     1   --> A'             
     e( 44 - 44) =      4.32828  eV     1   --> A'             
     e( 45 - 45) =      4.33855  eV     1   --> A'             
     e( 46 - 46) =      4.54339  eV     1   --> A'             
     e( 47 - 47) =      4.73088  eV     1   --> A'             
     e( 48 - 48) =      4.75816  eV     1   --> A'             
     e( 49 - 49) =      5.01776  eV     1   --> A''            
     e( 50 - 50) =      5.04899  eV     1   --> A''            
     e( 51 - 51) =      5.09665  eV     1   --> A''            
     e( 52 - 52) =      5.23464  eV     1   --> A''            
     e( 53 - 53) =      5.28633  eV     1   --> A''            
     e( 54 - 54) =      5.32104  eV     1   --> A''            
     e( 55 - 55) =      5.75072  eV     1   --> A'             
     e( 56 - 56) =      5.78172  eV     1   --> A'             
     e( 57 - 57) =      6.46149  eV     1   --> A'             
     e( 58 - 58) =      7.82141  eV     1   --> A'             
     e( 59 - 59) =      8.35056  eV     1   --> A'             
     e( 60 - 60) =      8.38165  eV     1   --> A'             
     e( 61 - 61) =      9.29971  eV     1   --> A'             
     e( 62 - 62) =      9.35091  eV     1   --> A'             
     e( 63 - 63) =      9.35365  eV     1   --> A'             
     e( 64 - 64) =      9.93650  eV     1   --> A'             
     e( 65 - 65) =      9.97365  eV     1   --> A'             
     e( 66 - 66) =     10.18046  eV     1   --> A'             
     e( 67 - 67) =     10.90761  eV     1   --> A''            
     e( 68 - 68) =     10.94303  eV     1   --> A''            
     e( 69 - 69) =     10.97105  eV     1   --> A''            
     e( 70 - 70) =     11.31070  eV     1   --> A'             
     e( 71 - 71) =     11.49213  eV     1   --> A'             
     e( 72 - 72) =     11.57720  eV     1   --> A'             
     e( 73 - 73) =     12.02282  eV     1   --> A'             
     e( 74 - 74) =     12.04825  eV     1   --> A'             
     e( 75 - 75) =     12.28257  eV     1   --> A''            
     e( 76 - 76) =     12.37750  eV     1   --> A''            
     e( 77 - 77) =     12.47466  eV     1   --> A''            
     e( 78 - 78) =     12.69801  eV     1   --> A'             
     e( 79 - 79) =     13.74090  eV     1   --> A'             
     e( 80 - 80) =     13.93722  eV     1   --> A'             
     e( 81 - 81) =     14.11108  eV     1   --> A'             
     e( 82 - 82) =     14.25590  eV     1   --> A'             
     e( 83 - 83) =     14.62082  eV     1   --> A'             
     e( 84 - 84) =     14.81028  eV     1   --> A'             
     e( 85 - 85) =     15.01196  eV     1   --> A''            
     e( 86 - 86) =     15.03345  eV     1   --> A'             
     e( 87 - 87) =     15.21596  eV     1   --> A'             
     e( 88 - 88) =     15.29592  eV     1   --> A''            
     e( 89 - 89) =     15.44026  eV     1   --> A''            
     e( 90 - 90) =     15.44079  eV     1   --> A'             
     e( 91 - 91) =     15.62673  eV     1   --> A'             
     e( 92 - 92) =     16.02378  eV     1   --> A''            
     e( 93 - 93) =     16.03711  eV     1   --> A'             
     e( 94 - 94) =     16.07227  eV     1   --> A'             
     e( 95 - 95) =     16.43787  eV     1   --> A''            
     e( 96 - 96) =     16.70362  eV     1   --> A'             
     e( 97 - 97) =     16.89711  eV     1   --> A''            
     e( 98 - 98) =     16.96069  eV     1   --> A'             
     e( 99 - 99) =     17.04922  eV     1   --> A'             
     e(100 -100) =     17.13984  eV     1   --> A'             
     e(101 -101) =     17.18805  eV     1   --> A'             
     e(102 -102) =     17.42206  eV     1   --> A'             
     e(103 -103) =     17.67756  eV     1   --> A'             
     e(104 -104) =     17.87817  eV     1   --> A''            
     e(105 -105) =     17.88612  eV     1   --> A'             
     e(106 -106) =     18.40953  eV     1   --> A''            
     e(107 -107) =     18.44261  eV     1   --> A'             
     e(108 -108) =     18.45680  eV     1   --> A'             
     e(109 -109) =     18.56295  eV     1   --> A''            
     e(110 -110) =     18.60190  eV     1   --> A'             
     e(111 -111) =     19.01218  eV     1   --> A''            
     e(112 -112) =     19.07895  eV     1   --> A'             
     e(113 -113) =     19.44256  eV     1   --> A'             
     e(114 -114) =     19.53020  eV     1   --> A'             
     e(115 -115) =     19.59646  eV     1   --> A'             
     e(116 -116) =     19.60023  eV     1   --> A''            
     e(117 -117) =     20.03020  eV     1   --> A'             
     e(118 -118) =     20.10132  eV     1   --> A''            
     e(119 -119) =     20.11951  eV     1   --> A'             
     e(120 -120) =     20.62430  eV     1   --> A''            

 **************************************************************************

 **************************************************************************

                    xk=(   0.00000,   0.16980,   0.07889  )

     Band symmetry, C_s (m)     point group:

     e(  1 -  1) =     -8.08681  eV     1   --> A'             
     e(  2 -  3) =     -8.08663  eV     2   -->   2 A'             
     e(  4 -  4) =     -7.95153  eV     1   --> A'             
     e(  5 -  5) =     -7.94767  eV     1   --> A'             
     e(  6 -  6) =     -7.94373  eV     1   --> A'             
     e(  7 -  7) =     -7.90082  eV     1   --> A'             
     e(  8 -  8) =     -7.89654  eV     1   --> A'             
     e(  9 -  9) =     -7.89198  eV     1   --> A'             
     e( 10 - 10) =     -7.87430  eV     1   --> A''            
     e( 11 - 11) =     -7.87410  eV     1   --> A''            
     e( 12 - 12) =     -7.87396  eV     1   --> A''            
     e( 13 - 15) =     -7.79356  eV     3   -->   3 A''            
     e( 16 - 16) =     -7.75531  eV     1   --> A'             
     e( 17 - 17) =     -7.75503  eV     1   --> A'             
     e( 18 - 18) =     -7.75481  eV     1   --> A'             
     e( 19 - 21) =     -7.73090  eV     3   -->   3 A''            
     e( 22 - 22) =     -7.65121  eV     1   --> A'             
     e( 23 - 23) =     -7.64865  eV     1   --> A'             
     e( 24 - 24) =     -7.64841  eV     1   --> A'             
     e( 25 - 25) =     -7.60733  eV     1   --> A''            
     e( 26 - 27) =     -7.60722  eV     2   -->   2 A''            
     e( 28 - 29) =     -7.52995  eV     2   -->   2 A'             
     e( 30 - 30) =     -7.52949  eV     1   --> A'             
     e( 31 - 31) =     -6.61011  eV     1   --> A'             
     e( 32 - 32) =     -6.60661  eV     1   --> A'             
     e( 33 - 33) =     -6.50135  eV     1   --> A'             
     e( 34 - 34) =     -6.40303  eV     1   --> A'             
     e( 35 - 35) =     -6.28911  eV     1   --> A'             
     e( 36 - 36) =     -6.28614  eV     1   --> A'             
     e( 37 - 37) =      0.43941  eV     1   --> A'             
     e( 38 - 38) =      0.44145  eV     1   --> A'             
     e( 39 - 39) =      0.61871  eV     1   --> A'             
     e( 40 - 40) =      2.39446  eV     1   --> A'             
     e( 41 - 41) =      2.65751  eV     1   --> A'             
     e( 42 - 42) =      2.67551  eV     1   --> A'             
     e( 43 - 43) =      4.08400  eV     1   --> A'             
     e( 44 - 44) =      4.13811  eV     1   --> A'             
     e( 45 - 45) =      4.14749  eV     1   --> A'             
     e( 46 - 46) =      4.38935  eV     1   --> A'             
     e( 47 - 47) =      4.63533  eV     1   --> A'             
     e( 48 - 48) =      4.66574  eV     1   --> A'             
     e( 49 - 49) =      4.96120  eV     1   --> A''            
     e( 50 - 50) =      4.99095  eV     1   --> A''            
     e( 51 - 51) =      5.04603  eV     1   --> A''            
     e( 52 - 52) =      5.18169  eV     1   --> A''            
     e( 53 - 53) =      5.24181  eV     1   --> A''            
     e( 54 - 54) =      5.27525  eV     1   --> A''            
     e( 55 - 55) =      5.76034  eV     1   --> A'             
     e( 56 - 56) =      5.80249  eV     1   --> A'             
     e( 57 - 57) =      6.41536  eV     1   --> A'             
     e( 58 - 58) =      7.96986  eV     1   --> A'             
     e( 59 - 59) =      8.40226  eV     1   --> A'             
     e( 60 - 60) =      8.45290  eV     1   --> A'             
     e( 61 - 61) =      9.38916  eV     1   --> A'             
     e( 62 - 62) =      9.47249  eV     1   --> A'             
     e( 63 - 63) =      9.48570  eV     1   --> A'             
     e( 64 - 64) =      9.80088  eV     1   --> A'             
     e( 65 - 65) =      9.81403  eV     1   --> A'             
     e( 66 - 66) =     10.07475  eV     1   --> A'             
     e( 67 - 67) =     10.95030  eV     1   --> A''            
     e( 68 - 68) =     10.97807  eV     1   --> A''            
     e( 69 - 69) =     10.99359  eV     1   --> A''            
     e( 70 - 70) =     11.24494  eV     1   --> A'             
     e( 71 - 71) =     11.42734  eV     1   --> A'             
     e( 72 - 72) =     11.51330  eV     1   --> A'             
     e( 73 - 73) =     12.07112  eV     1   --> A'             
     e( 74 - 74) =     12.10772  eV     1   --> A'             
     e( 75 - 75) =     12.38613  eV     1   --> A''            
     e( 76 - 76) =     12.46445  eV     1   --> A''            
     e( 77 - 77) =     12.56413  eV     1   --> A''            
     e( 78 - 78) =     12.78536  eV     1   --> A'             
     e( 79 - 79) =     13.57123  eV     1   --> A'             
     e( 80 - 80) =     13.80289  eV     1   --> A'             
     e( 81 - 81) =     13.97379  eV     1   --> A'             
     e( 82 - 82) =     14.11013  eV     1   --> A'             
     e( 83 - 83) =     14.49038  eV     1   --> A'             
     e( 84 - 84) =     14.63926  eV     1   --> A'             
     e( 85 - 85) =     14.99195  eV     1   --> A'             
     e( 86 - 86) =     15.02038  eV     1   --> A''            
     e( 87 - 87) =     15.20993  eV     1   --> A'             
     e( 88 - 88) =     15.30515  eV     1   --> A''            
     e( 89 - 89) =     15.41831  eV     1   --> A''            
     e( 90 - 90) =     15.54576  eV     1   --> A'             
     e( 91 - 91) =     15.69599  eV     1   --> A'             
     e( 92 - 92) =     16.01588  eV     1   --> A''            
     e( 93 - 93) =     16.13885  eV     1   --> A'             
     e( 94 - 94) =     16.21569  eV     1   --> A'             
     e( 95 - 95) =     16.46950  eV     1   --> A''            
     e( 96 - 96) =     16.73647  eV     1   --> A'             
     e( 97 - 97) =     16.90892  eV     1   --> A''            
     e( 98 - 98) =     17.02259  eV     1   --> A'             
     e( 99 - 99) =     17.02879  eV     1   --> A'             
     e(100 -100) =     17.24437  eV     1   --> A'             
     e(101 -101) =     17.45589  eV     1   --> A'             
     e(102 -102) =     17.55021  eV     1   --> A'             
     e(103 -103) =     17.91456  eV     1   --> A'             
     e(104 -104) =     18.01925  eV     1   --> A'             
     e(105 -105) =     18.05507  eV     1   --> A''            
     e(106 -106) =     18.50764  eV     1   --> A''            
     e(107 -107) =     18.51515  eV     1   --> A'             
     e(108 -108) =     18.62387  eV     1   --> A'             
     e(109 -109) =     18.67445  eV     1   --> A''            
     e(110 -110) =     18.70964  eV     1   --> A'             
     e(111 -111) =     19.16599  eV     1   --> A''            
     e(112 -112) =     19.38024  eV     1   --> A'             
     e(113 -113) =     19.38826  eV     1   --> A'             
     e(114 -114) =     19.53084  eV     1   --> A'             
     e(115 -115) =     19.61364  eV     1   --> A''            
     e(116 -116) =     19.70491  eV     1   --> A'             
     e(117 -117) =     20.23296  eV     1   --> A'             
     e(118 -118) =     20.26307  eV     1   --> A''            
     e(119 -119) =     20.29904  eV     1   --> A'             
     e(120 -120) =     20.61090  eV     1   --> A''            

 **************************************************************************

 **************************************************************************

                    xk=(   0.00000,   0.19103,   0.07889  )

     Band symmetry, C_s (m)     point group:

     e(  1 -  3) =     -8.08748  eV     3   -->   3 A'             
     e(  4 -  4) =     -7.96727  eV     1   --> A'             
     e(  5 -  5) =     -7.96227  eV     1   --> A'             
     e(  6 -  6) =     -7.95883  eV     1   --> A'             
     e(  7 -  7) =     -7.91768  eV     1   --> A'             
     e(  8 -  8) =     -7.91390  eV     1   --> A'             
     e(  9 -  9) =     -7.90807  eV     1   --> A'             
     e( 10 - 10) =     -7.87457  eV     1   --> A''            
     e( 11 - 11) =     -7.87438  eV     1   --> A''            
     e( 12 - 12) =     -7.87422  eV     1   --> A''            
     e( 13 - 15) =     -7.78957  eV     3   -->   3 A''            
     e( 16 - 16) =     -7.75743  eV     1   --> A'             
     e( 17 - 17) =     -7.75714  eV     1   --> A'             
     e( 18 - 18) =     -7.75695  eV     1   --> A'             
     e( 19 - 21) =     -7.72761  eV     3   -->   3 A''            
     e( 22 - 22) =     -7.65415  eV     1   --> A'             
     e( 23 - 23) =     -7.65181  eV     1   --> A'             
     e( 24 - 24) =     -7.65157  eV     1   --> A'             
     e( 25 - 25) =     -7.60776  eV     1   --> A''            
     e( 26 - 27) =     -7.60763  eV     2   -->   2 A''            
     e( 28 - 29) =     -7.52202  eV     2   -->   2 A'             
     e( 30 - 30) =     -7.52149  eV     1   --> A'             
     e( 31 - 31) =     -6.55560  eV     1   --> A'             
     e( 32 - 32) =     -6.55093  eV     1   --> A'             
     e( 33 - 33) =     -6.44937  eV     1   --> A'             
     e( 34 - 34) =     -6.35151  eV     1   --> A'             
     e( 35 - 35) =     -6.24124  eV     1   --> A'             
     e( 36 - 36) =     -6.23720  eV     1   --> A'             
     e( 37 - 37) =      0.46688  eV     1   --> A'             
     e( 38 - 38) =      0.46999  eV     1   --> A'             
     e( 39 - 39) =      0.62556  eV     1   --> A'             
     e( 40 - 40) =      2.40204  eV     1   --> A'             
     e( 41 - 41) =      2.57286  eV     1   --> A'             
     e( 42 - 42) =      2.59875  eV     1   --> A'             
     e( 43 - 43) =      3.89366  eV     1   --> A'             
     e( 44 - 44) =      3.94717  eV     1   --> A'             
     e( 45 - 45) =      3.96856  eV     1   --> A'             
     e( 46 - 46) =      4.23955  eV     1   --> A'             
     e( 47 - 47) =      4.55274  eV     1   --> A'             
     e( 48 - 48) =      4.58399  eV     1   --> A'             
     e( 49 - 49) =      4.90145  eV     1   --> A''            
     e( 50 - 50) =      4.92969  eV     1   --> A''            
     e( 51 - 51) =      4.99222  eV     1   --> A''            
     e( 52 - 52) =      5.12524  eV     1   --> A''            
     e( 53 - 53) =      5.19389  eV     1   --> A''            
     e( 54 - 54) =      5.22597  eV     1   --> A''            
     e( 55 - 55) =      5.76292  eV     1   --> A'             
     e( 56 - 56) =      5.81808  eV     1   --> A'             
     e( 57 - 57) =      6.35959  eV     1   --> A'             
     e( 58 - 58) =      8.09978  eV     1   --> A'             
     e( 59 - 59) =      8.42970  eV     1   --> A'             
     e( 60 - 60) =      8.50744  eV     1   --> A'             
     e( 61 - 61) =      9.42007  eV     1   --> A'             
     e( 62 - 62) =      9.50633  eV     1   --> A'             
     e( 63 - 63) =      9.58523  eV     1   --> A'             
     e( 64 - 64) =      9.66172  eV     1   --> A'             
     e( 65 - 65) =      9.73879  eV     1   --> A'             
     e( 66 - 66) =     10.00446  eV     1   --> A'             
     e( 67 - 67) =     10.99314  eV     1   --> A''            
     e( 68 - 68) =     11.00904  eV     1   --> A''            
     e( 69 - 69) =     11.01317  eV     1   --> A''            
     e( 70 - 70) =     11.21933  eV     1   --> A'             
     e( 71 - 71) =     11.40177  eV     1   --> A'             
     e( 72 - 72) =     11.48156  eV     1   --> A'             
     e( 73 - 73) =     12.12351  eV     1   --> A'             
     e( 74 - 74) =     12.17383  eV     1   --> A'             
     e( 75 - 75) =     12.49604  eV     1   --> A''            
     e( 76 - 76) =     12.55729  eV     1   --> A''            
     e( 77 - 77) =     12.65343  eV     1   --> A''            
     e( 78 - 78) =     12.87589  eV     1   --> A'             
     e( 79 - 79) =     13.42100  eV     1   --> A'             
     e( 80 - 80) =     13.66273  eV     1   --> A'             
     e( 81 - 81) =     13.83983  eV     1   --> A'             
     e( 82 - 82) =     13.98247  eV     1   --> A'             
     e( 83 - 83) =     14.37509  eV     1   --> A'             
     e( 84 - 84) =     14.45936  eV     1   --> A'             
     e( 85 - 85) =     14.95717  eV     1   --> A'             
     e( 86 - 86) =     15.05224  eV     1   --> A''            
     e( 87 - 87) =     15.12286  eV     1   --> A'             
     e( 88 - 88) =     15.33638  eV     1   --> A''            
     e( 89 - 89) =     15.40766  eV     1   --> A''            
     e( 90 - 90) =     15.66734  eV     1   --> A'             
     e( 91 - 91) =     15.71313  eV     1   --> A'             
     e( 92 - 92) =     16.02617  eV     1   --> A''            
     e( 93 - 93) =     16.26859  eV     1   --> A'             
     e( 94 - 94) =     16.39562  eV     1   --> A'             
     e( 95 - 95) =     16.49085  eV     1   --> A''            
     e( 96 - 96) =     16.68532  eV     1   --> A'             
     e( 97 - 97) =     16.91389  eV     1   --> A''            
     e( 98 - 98) =     16.93160  eV     1   --> A'             
     e( 99 - 99) =     17.11132  eV     1   --> A'             
     e(100 -100) =     17.39719  eV     1   --> A'             
     e(101 -101) =     17.73643  eV     1   --> A'             
     e(102 -102) =     17.79409  eV     1   --> A'             
     e(103 -103) =     18.18884  eV     1   --> A'             
     e(104 -104) =     18.20190  eV     1   --> A'             
     e(105 -105) =     18.25373  eV     1   --> A''            
     e(106 -106) =     18.55298  eV     1   --> A'             
     e(107 -107) =     18.63345  eV     1   --> A''            
     e(108 -108) =     18.69795  eV     1   --> A'             
     e(109 -109) =     18.73427  eV     1   --> A'             
     e(110 -110) =     18.78596  eV     1   --> A''            
     e(111 -111) =     19.31948  eV     1   --> A''            
     e(112 -112) =     19.52211  eV     1   --> A'             
     e(113 -113) =     19.53675  eV     1   --> A'             
     e(114 -114) =     19.60932  eV     1   --> A''            
     e(115 -115) =     19.64119  eV     1   --> A'             
     e(116 -116) =     19.90471  eV     1   --> A'             
     e(117 -117) =     20.37442  eV     1   --> A'             
     e(118 -118) =     20.41176  eV     1   --> A''            
     e(119 -119) =     20.54912  eV     1   --> A'             
     e(120 -120) =     20.64715  eV     1   --> A''            

 **************************************************************************

 **************************************************************************

                    xk=(   0.00000,   0.21225,   0.07889  )

     Band symmetry, C_s (m)     point group:

     e(  1 -  2) =     -8.08897  eV     2   -->   2 A'             
     e(  3 -  3) =     -8.08865  eV     1   --> A'             
     e(  4 -  4) =     -7.98278  eV     1   --> A'             
     e(  5 -  5) =     -7.97660  eV     1   --> A'             
     e(  6 -  6) =     -7.97424  eV     1   --> A'             
     e(  7 -  7) =     -7.93404  eV     1   --> A'             
     e(  8 -  8) =     -7.93127  eV     1   --> A'             
     e(  9 -  9) =     -7.92410  eV     1   --> A'             
     e( 10 - 10) =     -7.87489  eV     1   --> A''            
     e( 11 - 11) =     -7.87470  eV     1   --> A''            
     e( 12 - 12) =     -7.87453  eV     1   --> A''            
     e( 13 - 14) =     -7.78532  eV     2   -->   2 A''            
     e( 15 - 15) =     -7.78517  eV     1   --> A''            
     e( 16 - 16) =     -7.75959  eV     1   --> A'             
     e( 17 - 17) =     -7.75931  eV     1   --> A'             
     e( 18 - 18) =     -7.75914  eV     1   --> A'             
     e( 19 - 21) =     -7.72404  eV     3   -->   3 A''            
     e( 22 - 22) =     -7.65681  eV     1   --> A'             
     e( 23 - 23) =     -7.65468  eV     1   --> A'             
     e( 24 - 24) =     -7.65444  eV     1   --> A'             
     e( 25 - 25) =     -7.60820  eV     1   --> A''            
     e( 26 - 27) =     -7.60806  eV     2   -->   2 A''            
     e( 28 - 29) =     -7.51443  eV     2   -->   2 A'             
     e( 30 - 30) =     -7.51388  eV     1   --> A'             
     e( 31 - 31) =     -6.49734  eV     1   --> A'             
     e( 32 - 32) =     -6.49134  eV     1   --> A'             
     e( 33 - 33) =     -6.39368  eV     1   --> A'             
     e( 34 - 34) =     -6.29635  eV     1   --> A'             
     e( 35 - 35) =     -6.19005  eV     1   --> A'             
     e( 36 - 36) =     -6.18475  eV     1   --> A'             
     e( 37 - 37) =      0.49394  eV     1   --> A'             
     e( 38 - 38) =      0.49853  eV     1   --> A'             
     e( 39 - 39) =      0.62923  eV     1   --> A'             
     e( 40 - 40) =      2.40003  eV     1   --> A'             
     e( 41 - 41) =      2.47392  eV     1   --> A'             
     e( 42 - 42) =      2.50900  eV     1   --> A'             
     e( 43 - 43) =      3.70937  eV     1   --> A'             
     e( 44 - 44) =      3.77210  eV     1   --> A'             
     e( 45 - 45) =      3.79449  eV     1   --> A'             
     e( 46 - 46) =      4.09729  eV     1   --> A'             
     e( 47 - 47) =      4.48498  eV     1   --> A'             
     e( 48 - 48) =      4.51473  eV     1   --> A'             
     e( 49 - 49) =      4.83957  eV     1   --> A''            
     e( 50 - 50) =      4.86627  eV     1   --> A''            
     e( 51 - 51) =      4.93620  eV     1   --> A''            
     e( 52 - 52) =      5.06624  eV     1   --> A''            
     e( 53 - 53) =      5.14343  eV     1   --> A''            
     e( 54 - 54) =      5.17405  eV     1   --> A''            
     e( 55 - 55) =      5.75837  eV     1   --> A'             
     e( 56 - 56) =      5.82833  eV     1   --> A'             
     e( 57 - 57) =      6.29367  eV     1   --> A'             
     e( 58 - 58) =      8.20729  eV     1   --> A'             
     e( 59 - 59) =      8.42910  eV     1   --> A'             
     e( 60 - 60) =      8.54172  eV     1   --> A'             
     e( 61 - 61) =      9.38712  eV     1   --> A'             
     e( 62 - 62) =      9.42629  eV     1   --> A'             
     e( 63 - 63) =      9.51189  eV     1   --> A'             
     e( 64 - 64) =      9.65068  eV     1   --> A'             
     e( 65 - 65) =      9.76935  eV     1   --> A'             
     e( 66 - 66) =      9.96804  eV     1   --> A'             
     e( 67 - 67) =     11.02866  eV     1   --> A''            
     e( 68 - 69) =     11.03446  eV     2   -->   2 A''            
     e( 70 - 70) =     11.24200  eV     1   --> A'             
     e( 71 - 71) =     11.42298  eV     1   --> A'             
     e( 72 - 72) =     11.48995  eV     1   --> A'             
     e( 73 - 73) =     12.17353  eV     1   --> A'             
     e( 74 - 74) =     12.24098  eV     1   --> A'             
     e( 75 - 75) =     12.60977  eV     1   --> A''            
     e( 76 - 76) =     12.65375  eV     1   --> A''            
     e( 77 - 77) =     12.73875  eV     1   --> A''            
     e( 78 - 78) =     12.95902  eV     1   --> A'             
     e( 79 - 79) =     13.29785  eV     1   --> A'             
     e( 80 - 80) =     13.53055  eV     1   --> A'             
     e( 81 - 81) =     13.72914  eV     1   --> A'             
     e( 82 - 82) =     13.87680  eV     1   --> A'             
     e( 83 - 83) =     14.28024  eV     1   --> A'             
     e( 84 - 84) =     14.29380  eV     1   --> A'             
     e( 85 - 85) =     14.92081  eV     1   --> A'             
     e( 86 - 86) =     14.99321  eV     1   --> A'             
     e( 87 - 87) =     15.10853  eV     1   --> A''            
     e( 88 - 88) =     15.39001  eV     1   --> A''            
     e( 89 - 89) =     15.41339  eV     1   --> A''            
     e( 90 - 90) =     15.69201  eV     1   --> A'             
     e( 91 - 91) =     15.77495  eV     1   --> A'             
     e( 92 - 92) =     16.05764  eV     1   --> A''            
     e( 93 - 93) =     16.41009  eV     1   --> A'             
     e( 94 - 94) =     16.50881  eV     1   --> A''            
     e( 95 - 95) =     16.56309  eV     1   --> A'             
     e( 96 - 96) =     16.57715  eV     1   --> A'             
     e( 97 - 97) =     16.86056  eV     1   --> A'             
     e( 98 - 98) =     16.91913  eV     1   --> A''            
     e( 99 - 99) =     17.22844  eV     1   --> A'             
     e(100 -100) =     17.61440  eV     1   --> A'             
     e(101 -101) =     17.89420  eV     1   --> A'             
     e(102 -102) =     18.11097  eV     1   --> A'             
     e(103 -103) =     18.32622  eV     1   --> A'             
     e(104 -104) =     18.46893  eV     1   --> A''            
     e(105 -105) =     18.52237  eV     1   --> A'             
[...]
     e( 44 - 45) =      2.64708  eV     2   --> E              
     e( 44 - 45) =      2.64708  eV     2   --> E*             
     e( 46 - 46) =      2.94462  eV     1   --> A              
     e( 47 - 48) =      2.94480  eV     2   --> E              
     e( 47 - 48) =      2.94480  eV     2   --> E*             
     e( 49 - 51) =      4.06245  eV     3   --> A              
     e( 49 - 51) =      4.06245  eV     3   --> E              
     e( 49 - 51) =      4.06245  eV     3   --> E*             
     e( 52 - 54) =      4.25339  eV     3   --> A              
     e( 52 - 54) =      4.25339  eV     3   --> E              
     e( 52 - 54) =      4.25339  eV     3   --> E*             
     e( 55 - 57) =      4.90186  eV     3   --> A              
     e( 55 - 57) =      4.90186  eV     3   --> E              
     e( 55 - 57) =      4.90186  eV     3   --> E*             
     e( 58 - 60) =      8.55380  eV     3   --> A              
     e( 58 - 60) =      8.55380  eV     3   --> E              
     e( 58 - 60) =      8.55380  eV     3   --> E*             
     e( 61 - 63) =      8.90029  eV     3   --> A              
     e( 61 - 63) =      8.90029  eV     3   --> E              
     e( 61 - 63) =      8.90029  eV     3   --> E*             
     e( 64 - 66) =      9.21200  eV     3   --> A              
     e( 64 - 66) =      9.21200  eV     3   --> E              
     e( 64 - 66) =      9.21200  eV     3   --> E*             
     e( 67 - 69) =     11.79502  eV     3   --> A              
     e( 67 - 69) =     11.79502  eV     3   --> E              
     e( 67 - 69) =     11.79502  eV     3   --> E*             
     e( 70 - 72) =     12.16206  eV     3   --> A              
     e( 70 - 72) =     12.16206  eV     3   --> E              
     e( 70 - 72) =     12.16206  eV     3   --> E*             
     e( 73 - 75) =     12.33687  eV     3   --> A              
     e( 73 - 75) =     12.33687  eV     3   --> E              
     e( 73 - 75) =     12.33687  eV     3   --> E*             
     e( 76 - 78) =     13.63775  eV     3   --> A              
     e( 76 - 78) =     13.63775  eV     3   --> E              
     e( 76 - 78) =     13.63775  eV     3   --> E*             
     e( 79 - 81) =     13.77374  eV     3   --> A              
     e( 79 - 81) =     13.77374  eV     3   --> E              
     e( 79 - 81) =     13.77374  eV     3   --> E*             
     e( 82 - 84) =     14.74041  eV     3   --> A              
     e( 82 - 84) =     14.74041  eV     3   --> E              
     e( 82 - 84) =     14.74041  eV     3   --> E*             
     e( 85 - 87) =     15.26976  eV     3   --> A              
     e( 85 - 87) =     15.26976  eV     3   --> E              
     e( 85 - 87) =     15.26976  eV     3   --> E*             
     e( 88 - 90) =     15.75904  eV     3   --> A              
     e( 88 - 90) =     15.75904  eV     3   --> E              
     e( 88 - 90) =     15.75904  eV     3   --> E*             
     e( 91 - 93) =     16.02087  eV     3   --> A              
     e( 91 - 93) =     16.02087  eV     3   --> E              
     e( 91 - 93) =     16.02087  eV     3   --> E*             
     e( 94 - 96) =     16.98273  eV     3   --> A              
     e( 94 - 96) =     16.98273  eV     3   --> E              
     e( 94 - 96) =     16.98273  eV     3   --> E*             
     e( 97 - 99) =     17.92056  eV     3   --> A              
     e( 97 - 99) =     17.92056  eV     3   --> E              
     e( 97 - 99) =     17.92056  eV     3   --> E*             
     e(100 -102) =     19.23567  eV     3   --> A              
     e(100 -102) =     19.23567  eV     3   --> E              
     e(100 -102) =     19.23567  eV     3   --> E*             
     e(103 -105) =     19.64020  eV     3   --> A              
     e(103 -105) =     19.64020  eV     3   --> E              
     e(103 -105) =     19.64020  eV     3   --> E*             
     e(106 -107) =     19.94712  eV     2   -->   ?
     e(108 -108) =     19.94727  eV     1   -->   ?
     e(109 -111) =     20.63049  eV     3   --> A              
     e(109 -111) =     20.63049  eV     3   --> E              
     e(109 -111) =     20.63049  eV     3   --> E*             
     e(112 -114) =     21.85651  eV     3   --> A              
     e(112 -114) =     21.85651  eV     3   --> E              
     e(112 -114) =     21.85651  eV     3   --> E*             
     e(115 -117) =     22.17396  eV     3   --> A              
     e(115 -117) =     22.17396  eV     3   --> E              
     e(115 -117) =     22.17396  eV     3   --> E*             
     e(118 -120) =     22.67317  eV     3   --> A              
     e(118 -120) =     22.67317  eV     3   --> E              
     e(118 -120) =     22.67317  eV     3   --> E*             

 **************************************************************************

 **************************************************************************

                    xk=(   0.33087,   0.57308,   0.01972  )

     Band symmetry, C_3 (3)     point group:

     e(  1 -  1) =     -8.16271  eV     1   --> E              
     e(  2 -  6) =     -8.16259  eV     5   -->   2 A              
     e(  2 -  6) =     -8.16259  eV     5   --> E              
     e(  2 -  6) =     -8.16259  eV     5   -->   2 E*             
     e(  7 -  9) =     -8.02537  eV     3   --> A              
     e(  7 -  9) =     -8.02537  eV     3   --> E              
     e(  7 -  9) =     -8.02537  eV     3   --> E*             
     e( 10 - 12) =     -7.83809  eV     3   --> A              
     e( 10 - 12) =     -7.83809  eV     3   --> E              
     e( 10 - 12) =     -7.83809  eV     3   --> E*             
     e( 13 - 15) =     -7.83761  eV     3   --> A              
     e( 13 - 15) =     -7.83761  eV     3   --> E              
     e( 13 - 15) =     -7.83761  eV     3   --> E*             
     e( 16 - 21) =     -7.70971  eV     6   -->   2 A              
     e( 16 - 21) =     -7.70971  eV     6   -->   2 E              
     e( 16 - 21) =     -7.70971  eV     6   -->   2 E*             
     e( 22 - 24) =     -7.64096  eV     3   --> A              
     e( 22 - 24) =     -7.64096  eV     3   --> E              
     e( 22 - 24) =     -7.64096  eV     3   --> E*             
     e( 25 - 27) =     -7.64063  eV     3   --> A              
     e( 25 - 27) =     -7.64063  eV     3   --> E              
     e( 25 - 27) =     -7.64063  eV     3   --> E*             
     e( 28 - 30) =     -7.44218  eV     3   --> A              
     e( 28 - 30) =     -7.44218  eV     3   --> E              
     e( 28 - 30) =     -7.44218  eV     3   --> E*             
     e( 31 - 36) =     -5.37725  eV     6   -->   2 A              
     e( 31 - 36) =     -5.37725  eV     6   -->   2 E              
     e( 31 - 36) =     -5.37725  eV     6   -->   2 E*             
     e( 37 - 39) =      0.33678  eV     3   --> A              
     e( 37 - 39) =      0.33678  eV     3   --> E              
     e( 37 - 39) =      0.33678  eV     3   --> E*             
     e( 40 - 42) =      1.10559  eV     3   --> A              
     e( 40 - 42) =      1.10559  eV     3   --> E              
     e( 40 - 42) =      1.10559  eV     3   --> E*             
     e( 43 - 43) =      2.64666  eV     1   --> A              
     e( 44 - 45) =      2.64687  eV     2   --> E              
     e( 44 - 45) =      2.64687  eV     2   --> E*             
     e( 46 - 46) =      2.94507  eV     1   --> A              
     e( 47 - 48) =      2.94525  eV     2   --> E              
     e( 47 - 48) =      2.94525  eV     2   --> E*             
     e( 49 - 51) =      4.05828  eV     3   --> A              
     e( 49 - 51) =      4.05828  eV     3   --> E              
     e( 49 - 51) =      4.05828  eV     3   --> E*             
     e( 52 - 54) =      4.25855  eV     3   --> A              
     e( 52 - 54) =      4.25855  eV     3   --> E              
     e( 52 - 54) =      4.25855  eV     3   --> E*             
     e( 55 - 57) =      4.90045  eV     3   --> A              
     e( 55 - 57) =      4.90045  eV     3   --> E              
     e( 55 - 57) =      4.90045  eV     3   --> E*             
     e( 58 - 60) =      8.58672  eV     3   --> A              
     e( 58 - 60) =      8.58672  eV     3   --> E              
     e( 58 - 60) =      8.58672  eV     3   --> E*             
     e( 61 - 63) =      8.82987  eV     3   --> A              
     e( 61 - 63) =      8.82987  eV     3   --> E              
     e( 61 - 63) =      8.82987  eV     3   --> E*             
     e( 64 - 66) =      9.25336  eV     3   --> A              
     e( 64 - 66) =      9.25336  eV     3   --> E              
     e( 64 - 66) =      9.25336  eV     3   --> E*             
     e( 67 - 69) =     11.77460  eV     3   --> A              
     e( 67 - 69) =     11.77460  eV     3   --> E              
     e( 67 - 69) =     11.77460  eV     3   --> E*             
     e( 70 - 72) =     12.17650  eV     3   --> A              
     e( 70 - 72) =     12.17650  eV     3   --> E              
     e( 70 - 72) =     12.17650  eV     3   --> E*             
     e( 73 - 75) =     12.33632  eV     3   --> A              
     e( 73 - 75) =     12.33632  eV     3   --> E              
     e( 73 - 75) =     12.33632  eV     3   --> E*             
     e( 76 - 78) =     13.67428  eV     3   --> A              
     e( 76 - 78) =     13.67428  eV     3   --> E              
     e( 76 - 78) =     13.67428  eV     3   --> E*             
     e( 79 - 81) =     13.75000  eV     3   --> A              
     e( 79 - 81) =     13.75000  eV     3   --> E              
     e( 79 - 81) =     13.75000  eV     3   --> E*             
     e( 82 - 84) =     14.73991  eV     3   --> A              
     e( 82 - 84) =     14.73991  eV     3   --> E              
     e( 82 - 84) =     14.73991  eV     3   --> E*             
     e( 85 - 87) =     15.24289  eV     3   --> A              
     e( 85 - 87) =     15.24289  eV     3   --> E              
     e( 85 - 87) =     15.24289  eV     3   --> E*             
     e( 88 - 90) =     15.75866  eV     3   --> A              
     e( 88 - 90) =     15.75866  eV     3   --> E              
     e( 88 - 90) =     15.75866  eV     3   --> E*             
     e( 91 - 93) =     16.00053  eV     3   --> A              
     e( 91 - 93) =     16.00053  eV     3   --> E              
     e( 91 - 93) =     16.00053  eV     3   --> E*             
     e( 94 - 96) =     17.14785  eV     3   --> A              
     e( 94 - 96) =     17.14785  eV     3   --> E              
     e( 94 - 96) =     17.14785  eV     3   --> E*             
     e( 97 - 99) =     17.73138  eV     3   --> A              
     e( 97 - 99) =     17.73138  eV     3   --> E              
     e( 97 - 99) =     17.73138  eV     3   --> E*             
     e(100 -102) =     19.35236  eV     3   --> A              
     e(100 -102) =     19.35236  eV     3   --> E              
     e(100 -102) =     19.35236  eV     3   --> E*             
     e(103 -105) =     19.65811  eV     3   --> A              
     e(103 -105) =     19.65811  eV     3   --> E              
     e(103 -105) =     19.65811  eV     3   --> E*             
     e(106 -107) =     19.87826  eV     2   -->   ?
     e(108 -108) =     19.87839  eV     1   -->   ?
     e(109 -111) =     20.61513  eV     3   --> A              
     e(109 -111) =     20.61513  eV     3   --> E              
     e(109 -111) =     20.61513  eV     3   --> E*             
     e(112 -114) =     21.88896  eV     3   --> A              
     e(112 -114) =     21.88896  eV     3   --> E              
     e(112 -114) =     21.88896  eV     3   --> E*             
     e(115 -117) =     22.19817  eV     3   --> A              
     e(115 -117) =     22.19817  eV     3   --> E              
     e(115 -117) =     22.19817  eV     3   --> E*             
     e(118 -120) =     22.57089  eV     3   --> A              
     e(118 -120) =     22.57089  eV     3   --> E              
     e(118 -120) =     22.57089  eV     3   --> E*             

 **************************************************************************

 **************************************************************************

                    xk=(   0.33087,   0.57308,  -0.00000  )

     Band symmetry, C_3 (3)     point group:

     e(  1 -  1) =     -8.16271  eV     1   --> E              
     e(  2 -  6) =     -8.16259  eV     5   -->   2 A              
     e(  2 -  6) =     -8.16259  eV     5   --> E              
     e(  2 -  6) =     -8.16259  eV     5   -->   2 E*             
     e(  7 -  9) =     -8.02537  eV     3   --> A              
     e(  7 -  9) =     -8.02537  eV     3   --> E              
     e(  7 -  9) =     -8.02537  eV     3   --> E*             
     e( 10 - 12) =     -7.83809  eV     3   --> A              
     e( 10 - 12) =     -7.83809  eV     3   --> E              
     e( 10 - 12) =     -7.83809  eV     3   --> E*             
     e( 13 - 15) =     -7.83761  eV     3   --> A              
     e( 13 - 15) =     -7.83761  eV     3   --> E              
     e( 13 - 15) =     -7.83761  eV     3   --> E*             
     e( 16 - 21) =     -7.70971  eV     6   -->   2 A              
     e( 16 - 21) =     -7.70971  eV     6   -->   2 E              
     e( 16 - 21) =     -7.70971  eV     6   -->   2 E*             
     e( 22 - 24) =     -7.64096  eV     3   --> A              
     e( 22 - 24) =     -7.64096  eV     3   --> E              
     e( 22 - 24) =     -7.64096  eV     3   --> E*             
     e( 25 - 27) =     -7.64063  eV     3   --> A              
     e( 25 - 27) =     -7.64063  eV     3   --> E              
     e( 25 - 27) =     -7.64063  eV     3   --> E*             
     e( 28 - 30) =     -7.44218  eV     3   --> A              
     e( 28 - 30) =     -7.44218  eV     3   --> E              
     e( 28 - 30) =     -7.44218  eV     3   --> E*             
     e( 31 - 36) =     -5.37725  eV     6   -->   2 A              
     e( 31 - 36) =     -5.37725  eV     6   -->   2 E              
     e( 31 - 36) =     -5.37725  eV     6   -->   2 E*             
     e( 37 - 39) =      0.33678  eV     3   --> A              
     e( 37 - 39) =      0.33678  eV     3   --> E              
     e( 37 - 39) =      0.33678  eV     3   --> E*             
     e( 40 - 42) =      1.10559  eV     3   --> A              
     e( 40 - 42) =      1.10559  eV     3   --> E              
     e( 40 - 42) =      1.10559  eV     3   --> E*             
     e( 43 - 43) =      2.64658  eV     1   --> A              
     e( 44 - 45) =      2.64678  eV     2   --> E              
     e( 44 - 45) =      2.64678  eV     2   --> E*             
     e( 46 - 46) =      2.94526  eV     1   --> A              
     e( 47 - 48) =      2.94543  eV     2   --> E              
     e( 47 - 48) =      2.94543  eV     2   --> E*             
     e( 49 - 51) =      4.05661  eV     3   --> A              
     e( 49 - 51) =      4.05661  eV     3   --> E              
     e( 49 - 51) =      4.05661  eV     3   --> E*             
     e( 52 - 54) =      4.26063  eV     3   --> A              
     e( 52 - 54) =      4.26063  eV     3   --> E              
     e( 52 - 54) =      4.26063  eV     3   --> E*             
     e( 55 - 57) =      4.89986  eV     3   --> A              
     e( 55 - 57) =      4.89986  eV     3   --> E              
     e( 55 - 57) =      4.89986  eV     3   --> E*             
     e( 58 - 60) =      8.60529  eV     3   --> A              
     e( 58 - 60) =      8.60529  eV     3   --> E              
     e( 58 - 60) =      8.60529  eV     3   --> E*             
     e( 61 - 63) =      8.79850  eV     3   --> A              
     e( 61 - 63) =      8.79850  eV     3   --> E              
     e( 61 - 63) =      8.79850  eV     3   --> E*             
     e( 64 - 66) =      9.26777  eV     3   --> A              
     e( 64 - 66) =      9.26777  eV     3   --> E              
     e( 64 - 66) =      9.26777  eV     3   --> E*             
     e( 67 - 69) =     11.76655  eV     3   --> A              
     e( 67 - 69) =     11.76655  eV     3   --> E              
     e( 67 - 69) =     11.76655  eV     3   --> E*             
     e( 70 - 72) =     12.18207  eV     3   --> A              
     e( 70 - 72) =     12.18207  eV     3   --> E              
     e( 70 - 72) =     12.18207  eV     3   --> E*             
     e( 73 - 75) =     12.33607  eV     3   --> A              
     e( 73 - 75) =     12.33607  eV     3   --> E              
     e( 73 - 75) =     12.33607  eV     3   --> E*             
     e( 76 - 76) =     13.70405  eV     1   -->   ?
     e( 77 - 78) =     13.70420  eV     2   -->   ?
     e( 79 - 81) =     13.72559  eV     3   --> A              
     e( 79 - 81) =     13.72559  eV     3   --> E              
     e( 79 - 81) =     13.72559  eV     3   --> E*             
     e( 82 - 84) =     14.73969  eV     3   --> A              
     e( 82 - 84) =     14.73969  eV     3   --> E              
     e( 82 - 84) =     14.73969  eV     3   --> E*             
     e( 85 - 87) =     15.23180  eV     3   --> A              
     e( 85 - 87) =     15.23180  eV     3   --> E              
     e( 85 - 87) =     15.23180  eV     3   --> E*             
     e( 88 - 90) =     15.75851  eV     3   --> A              
     e( 88 - 90) =     15.75851  eV     3   --> E              
     e( 88 - 90) =     15.75851  eV     3   --> E*             
     e( 91 - 93) =     15.99327  eV     3   --> A              
     e( 91 - 93) =     15.99327  eV     3   --> E              
     e( 91 - 93) =     15.99327  eV     3   --> E*             
     e( 94 - 96) =     17.25012  eV     3   --> A              
     e( 94 - 96) =     17.25012  eV     3   --> E              
     e( 94 - 96) =     17.25012  eV     3   --> E*             
     e( 97 - 99) =     17.62081  eV     3   --> A              
     e( 97 - 99) =     17.62081  eV     3   --> E              
     e( 97 - 99) =     17.62081  eV     3   --> E*             
     e(100 -102) =     19.40027  eV     3   --> A              
     e(100 -102) =     19.40027  eV     3   --> E              
     e(100 -102) =     19.40027  eV     3   --> E*             
     e(103 -105) =     19.68177  eV     3   --> A              
     e(103 -105) =     19.68177  eV     3   --> E              
     e(103 -105) =     19.68177  eV     3   --> E*             
     e(106 -108) =     19.83012  eV     3   --> A              
     e(106 -108) =     19.83012  eV     3   --> E              
     e(106 -108) =     19.83012  eV     3   --> E*             
     e(109 -111) =     20.61058  eV     3   --> A              
     e(109 -111) =     20.61058  eV     3   --> E              
     e(109 -111) =     20.61058  eV     3   --> E*             
     e(112 -114) =     21.88789  eV     3   --> A              
     e(112 -114) =     21.88789  eV     3   --> E              
     e(112 -114) =     21.88789  eV     3   --> E*             
     e(115 -117) =     22.25263  eV     3   --> A              
     e(115 -117) =     22.25263  eV     3   --> E              
     e(115 -117) =     22.25263  eV     3   --> E*             
     e(118 -120) =     22.49698  eV     3   --> A              
     e(118 -120) =     22.49698  eV     3   --> E              
     e(118 -120) =     22.49698  eV     3   --> E*             

 **************************************************************************
 
     BANDS        :  4m47.95s CPU     4m59.74s WALL

 
   This run was terminated on:   3:33:46  23Sep2021            

=------------------------------------------------------------------------------=
   JOB DONE.
=------------------------------------------------------------------------------=
