
     Program BANDS v.6.1 (svn rev. 13369) starts on 23Sep2021 at  4:19:55 

     This program is part of the open-source Quantum ESPRESSO suite
     for quantum simulation of materials; please cite
         "P. Giannozzi et al., J. Phys.:Condens. Matter 21 395502 (2009);
          URL http://www.quantum-espresso.org", 
     in publications or presentations arising from this work. More details at
     http://www.quantum-espresso.org/quote

     Parallel version (MPI), running on    48 processors
     R & G space division:  proc/nbgrp/npool/nimage =      48

     Reading data from directory:
     /share/inl/marcel/TB/InSegamma_outdir/InSegamma.save

   Info: using nr1, nr2, nr3 values from input

   Info: using nr1, nr2, nr3 values from input

     IMPORTANT: XC functional enforced from input :
     Exchange-correlation      = SLA+PW+PSX+PSC ( 1  4 10  8 0 0)
     Any further DFT definition will be discarded
     Please, verify this is what you really want

 
     Parallelization info
     --------------------
     sticks:   dense  smooth     PW     G-vecs:    dense   smooth      PW
     Min          49      49     13                12335    12335    1743
     Max          50      50     14                12372    12372    1782
     Sum        2395    2395    649               593323   593323   84711
 
     high-symmetry point:  0.0000 0.0000 0.0792   x coordinate   0.0000
     high-symmetry point: -0.0000 0.5740 0.0792   x coordinate   0.5740
     high-symmetry point:  0.3314 0.5740 0.0792   x coordinate   0.9054
     high-symmetry point:  0.0000 0.0000 0.0792   x coordinate   1.5682
     high-symmetry point:  0.0000 0.0000 0.0000   x coordinate   1.6474
     high-symmetry point: -0.0000 0.5740-0.0000   x coordinate   2.2214
     high-symmetry point:  0.3314 0.5740-0.0000   x coordinate   2.5529
     high-symmetry point:  0.0000 0.0000 0.0000   x coordinate   3.2157
     high-symmetry point: -0.0000 0.5740 0.0792   x coordinate   3.2157
     high-symmetry point: -0.0000 0.5740-0.0000   x coordinate   3.2948
     high-symmetry point:  0.3314 0.5740 0.0792   x coordinate   3.2948
     high-symmetry point:  0.3314 0.5740-0.0000   x coordinate   3.3740

     Plottable bands (eV) written to file InSegamma.bands.dat.gnu
     Bands written to file InSegamma.bands.dat

 **************************************************************************

                    xk=(   0.00000,   0.00000,   0.07917  )

     point group C_3v (3m)  
     there are  3 classes
     the character table:

       E     2C3   3s_v 
A_1    1.00  1.00  1.00
A_2    1.00  1.00 -1.00
E      2.00 -1.00  0.00

     the symmetry operations in each class and the name of the first element:

     E        1
                                                                 
     2C3      2    3
                                                                 
     3s_v     4    5    6
                                                                 

     Band symmetry, C_3v (3m)   point group:

     e(  1 -  3) =     -8.00919  eV     3   -->   3 A_1  L_1       
     e(  4 -  5) =     -7.80244  eV     2   --> E    L_3       
     e(  6 -  9) =     -7.80230  eV     4   -->   2 E    L_3       
     e( 10 - 15) =     -7.70025  eV     6   -->   3 E    L_3       
     e( 16 - 21) =     -7.69451  eV     6   -->   3 E    L_3       
     e( 22 - 22) =     -7.52891  eV     1   --> A_1  L_1       
     e( 23 - 28) =     -7.52515  eV     6   -->   3 E    L_3       
     e( 29 - 30) =     -7.52160  eV     2   -->   2 A_1  L_1       
     e( 31 - 32) =     -6.78376  eV     2   -->   2 A_1  L_1       
     e( 33 - 33) =     -6.65998  eV     1   --> A_1  L_1       
     e( 34 - 34) =     -6.54899  eV     1   --> A_1  L_1       
     e( 35 - 36) =     -6.41961  eV     2   -->   2 A_1  L_1       
     e( 37 - 38) =      0.37122  eV     2   -->   2 A_1  L_1       
     e( 39 - 39) =      0.63990  eV     1   --> A_1  L_1       
     e( 40 - 40) =      2.34781  eV     1   --> A_1  L_1       
     e( 41 - 42) =      2.98496  eV     2   -->   2 A_1  L_1       
     e( 43 - 44) =      5.32186  eV     2   --> E    L_3       
     e( 45 - 48) =      5.36950  eV     4   -->   2 E    L_3       
     e( 49 - 50) =      5.42565  eV     2   -->   2 A_1  L_1       
     e( 51 - 54) =      5.51865  eV     4   -->   2 E    L_3       
     e( 55 - 56) =      5.57193  eV     2   --> E    L_3       
     e( 57 - 57) =      6.66382  eV     1   --> A_1  L_1       
     e( 58 - 58) =      6.97736  eV     1   --> A_1  L_1       
     e( 59 - 60) =      8.04976  eV     2   -->   2 A_1  L_1       
     e( 61 - 62) =      8.66304  eV     2   -->   2 A_1  L_1       
     e( 63 - 63) =      8.69498  eV     1   --> A_1  L_1       
     e( 64 - 65) =     10.83164  eV     2   --> E    L_3       
     e( 66 - 69) =     10.89384  eV     4   -->   2 E    L_3       
     e( 70 - 70) =     11.96354  eV     1   --> A_1  L_1       
     e( 71 - 71) =     11.96378  eV     1   --> A_1  L_1       
     e( 72 - 75) =     12.09855  eV     4   -->   2 E    L_3       
     e( 76 - 77) =     12.19434  eV     2   --> E    L_3       
     e( 78 - 78) =     12.36704  eV     1   --> A_1  L_1       
     e( 79 - 79) =     14.08698  eV     1   --> A_1  L_1       
     e( 80 - 80) =     14.08712  eV     1   --> A_1  L_1       
     e( 81 - 81) =     14.43903  eV     1   --> A_1  L_1       
     e( 82 - 82) =     15.12106  eV     1   --> A_1  L_1       
     e( 83 - 83) =     15.12127  eV     1   --> A_1  L_1       
     e( 84 - 84) =     15.22829  eV     1   --> A_1  L_1       
     e( 85 - 86) =     15.30439  eV     2   --> E    L_3       
     e( 87 - 90) =     15.49949  eV     4   -->   2 E    L_3       
     e( 91 - 92) =     15.93367  eV     2   -->   2 A_1  L_1       
     e( 93 - 93) =     16.00724  eV     1   --> A_1  L_1       
     e( 94 - 94) =     16.40830  eV     1   --> A_1  L_1       
     e( 95 - 96) =     16.66629  eV     2   --> E    L_3       
     e( 97 -100) =     16.67924  eV     4   -->   2 E    L_3       
     e(101 -102) =     16.89166  eV     2   -->   2 A_1  L_1       
     e(103 -103) =     17.16501  eV     1   --> A_1  L_1       
     e(104 -107) =     17.41921  eV     4   -->   2 E    L_3       
     e(108 -109) =     17.82908  eV     2   --> E    L_3       
     e(110 -111) =     18.44709  eV     2   -->   2 A_1  L_1       
     e(112 -113) =     19.35250  eV     2   --> E    L_3       
     e(114 -114) =     19.38630  eV     1   --> A_1  L_1       
     e(115 -116) =     19.52774  eV     2   --> E    L_3       
     e(117 -118) =     19.52784  eV     2   --> E    L_3       
     e(119 -120) =     20.11636  eV     2   -->   2 A_1  L_1       

 **************************************************************************

 **************************************************************************

                    xk=(  -0.00000,   0.02126,   0.07917  )

     point group C_s (m)    
     there are  2 classes
     the character table:

       E     s    
A'     1.00  1.00
A''    1.00 -1.00

     the symmetry operations in each class and the name of the first element:

     E        1
                                                                 
     s        2
                                                                 

     Band symmetry, C_s (m)     point group:

     e(  1 -  3) =     -8.00915  eV     3   -->   3 A'             
     e(  4 -  6) =     -7.80389  eV     3   -->   3 A'             
     e(  7 -  7) =     -7.80240  eV     1   --> A''            
     e(  8 -  9) =     -7.80227  eV     2   -->   2 A''            
     e( 10 - 10) =     -7.70240  eV     1   --> A'             
     e( 11 - 12) =     -7.70219  eV     2   -->   2 A'             
     e( 13 - 15) =     -7.70000  eV     3   -->   3 A''            
     e( 16 - 18) =     -7.69465  eV     3   -->   3 A'             
     e( 19 - 21) =     -7.69430  eV     3   -->   3 A''            
     e( 22 - 22) =     -7.53512  eV     1   --> A'             
     e( 23 - 24) =     -7.53119  eV     2   -->   2 A'             
     e( 25 - 27) =     -7.52517  eV     3   -->   3 A''            
     e( 28 - 28) =     -7.51785  eV     1   --> A'             
     e( 29 - 30) =     -7.51476  eV     2   -->   2 A'             
     e( 31 - 32) =     -6.77965  eV     2   -->   2 A'             
     e( 33 - 33) =     -6.65620  eV     1   --> A'             
     e( 34 - 34) =     -6.54528  eV     1   --> A'             
     e( 35 - 36) =     -6.41615  eV     2   -->   2 A'             
     e( 37 - 38) =      0.37353  eV     2   -->   2 A'             
     e( 39 - 39) =      0.64116  eV     1   --> A'             
     e( 40 - 40) =      2.34959  eV     1   --> A'             
     e( 41 - 42) =      2.98220  eV     2   -->   2 A'             
     e( 43 - 43) =      5.30127  eV     1   --> A'             
     e( 44 - 44) =      5.31683  eV     1   --> A''            
     e( 45 - 45) =      5.33576  eV     1   --> A'             
     e( 46 - 46) =      5.34197  eV     1   --> A'             
     e( 47 - 47) =      5.35881  eV     1   --> A'             
     e( 48 - 48) =      5.35983  eV     1   --> A''            
     e( 49 - 49) =      5.36936  eV     1   --> A''            
     e( 50 - 50) =      5.37273  eV     1   --> A'             
     e( 51 - 51) =      5.50987  eV     1   --> A''            
     e( 52 - 52) =      5.51993  eV     1   --> A''            
     e( 53 - 53) =      5.53053  eV     1   --> A'             
     e( 54 - 54) =      5.56832  eV     1   --> A''            
     e( 55 - 55) =      5.56947  eV     1   --> A'             
     e( 56 - 56) =      5.57753  eV     1   --> A'             
     e( 57 - 57) =      6.66247  eV     1   --> A'             
     e( 58 - 58) =      7.01637  eV     1   --> A'             
     e( 59 - 59) =      8.06418  eV     1   --> A'             
     e( 60 - 60) =      8.06457  eV     1   --> A'             
     e( 61 - 61) =      8.68423  eV     1   --> A'             
     e( 62 - 62) =      8.68439  eV     1   --> A'             
     e( 63 - 63) =      8.71538  eV     1   --> A'             
     e( 64 - 64) =     10.81195  eV     1   --> A'             
     e( 65 - 65) =     10.83557  eV     1   --> A''            
     e( 66 - 66) =     10.86356  eV     1   --> A'             
     e( 67 - 67) =     10.87620  eV     1   --> A'             
     e( 68 - 68) =     10.89168  eV     1   --> A''            
     e( 69 - 69) =     10.90445  eV     1   --> A''            
     e( 70 - 70) =     11.95856  eV     1   --> A'             
     e( 71 - 71) =     11.96428  eV     1   --> A'             
     e( 72 - 72) =     12.08002  eV     1   --> A'             
     e( 73 - 73) =     12.09550  eV     1   --> A'             
     e( 74 - 74) =     12.09583  eV     1   --> A''            
     e( 75 - 75) =     12.11729  eV     1   --> A''            
     e( 76 - 76) =     12.17219  eV     1   --> A'             
     e( 77 - 77) =     12.20247  eV     1   --> A''            
     e( 78 - 78) =     12.37584  eV     1   --> A'             
     e( 79 - 79) =     14.10730  eV     1   --> A'             
     e( 80 - 80) =     14.10769  eV     1   --> A'             
     e( 81 - 81) =     14.46400  eV     1   --> A'             
     e( 82 - 82) =     15.03861  eV     1   --> A'             
     e( 83 - 83) =     15.05913  eV     1   --> A'             
     e( 84 - 84) =     15.18854  eV     1   --> A'             
     e( 85 - 85) =     15.28201  eV     1   --> A'             
     e( 86 - 86) =     15.29447  eV     1   --> A''            
     e( 87 - 87) =     15.42751  eV     1   --> A''            
     e( 88 - 88) =     15.50391  eV     1   --> A'             
     e( 89 - 89) =     15.56527  eV     1   --> A''            
     e( 90 - 90) =     15.61652  eV     1   --> A'             
     e( 91 - 91) =     15.94662  eV     1   --> A'             
     e( 92 - 92) =     15.94832  eV     1   --> A'             
     e( 93 - 93) =     16.00171  eV     1   --> A'             
     e( 94 - 94) =     16.41504  eV     1   --> A'             
     e( 95 - 95) =     16.57153  eV     1   --> A''            
     e( 96 - 96) =     16.57785  eV     1   --> A'             
     e( 97 - 97) =     16.68649  eV     1   --> A''            
     e( 98 - 98) =     16.72213  eV     1   --> A'             
     e( 99 - 99) =     16.75253  eV     1   --> A'             
     e(100 -100) =     16.77918  eV     1   --> A''            
     e(101 -101) =     16.83999  eV     1   --> A'             
     e(102 -102) =     16.88914  eV     1   --> A'             
     e(103 -103) =     17.18125  eV     1   --> A'             
     e(104 -104) =     17.36177  eV     1   --> A''            
     e(105 -105) =     17.42295  eV     1   --> A'             
     e(106 -106) =     17.50872  eV     1   --> A''            
     e(107 -107) =     17.54741  eV     1   --> A'             
     e(108 -108) =     17.81890  eV     1   --> A''            
     e(109 -109) =     17.82518  eV     1   --> A'             
     e(110 -110) =     18.45449  eV     1   --> A'             
     e(111 -111) =     18.45481  eV     1   --> A'             
     e(112 -112) =     19.24098  eV     1   --> A'             
     e(113 -113) =     19.36727  eV     1   --> A''            
     e(114 -114) =     19.40608  eV     1   --> A'             
     e(115 -115) =     19.43392  eV     1   --> A''            
     e(116 -116) =     19.55278  eV     1   --> A'             
     e(117 -117) =     19.61577  eV     1   --> A'             
     e(118 -118) =     19.65209  eV     1   --> A''            
     e(119 -119) =     20.11343  eV     1   --> A'             
     e(120 -120) =     20.12512  eV     1   --> A'             

 **************************************************************************

 **************************************************************************

                    xk=(  -0.00000,   0.04252,   0.07917  )

     Band symmetry, C_s (m)     point group:

     e(  1 -  3) =     -8.00906  eV     3   -->   3 A'             
     e(  4 -  5) =     -7.80854  eV     2   -->   2 A'             
     e(  6 -  6) =     -7.80783  eV     1   --> A'             
     e(  7 -  7) =     -7.80231  eV     1   --> A''            
     e(  8 -  9) =     -7.80218  eV     2   -->   2 A''            
     e( 10 - 10) =     -7.70901  eV     1   --> A'             
     e( 11 - 12) =     -7.70791  eV     2   -->   2 A'             
     e( 13 - 15) =     -7.69926  eV     3   -->   3 A''            
     e( 16 - 18) =     -7.69507  eV     3   -->   3 A'             
     e( 19 - 21) =     -7.69369  eV     3   -->   3 A''            
     e( 22 - 22) =     -7.54177  eV     1   --> A'             
     e( 23 - 24) =     -7.53778  eV     2   -->   2 A'             
     e( 25 - 27) =     -7.52525  eV     3   -->   3 A''            
     e( 28 - 28) =     -7.50839  eV     1   --> A'             
     e( 29 - 30) =     -7.50588  eV     2   -->   2 A'             
     e( 31 - 32) =     -6.76745  eV     2   -->   2 A'             
     e( 33 - 33) =     -6.64491  eV     1   --> A'             
     e( 34 - 34) =     -6.53423  eV     1   --> A'             
     e( 35 - 36) =     -6.40582  eV     2   -->   2 A'             
     e( 37 - 38) =      0.38038  eV     2   -->   2 A'             
     e( 39 - 39) =      0.64488  eV     1   --> A'             
     e( 40 - 40) =      2.35485  eV     1   --> A'             
     e( 41 - 41) =      2.97360  eV     1   --> A'             
     e( 42 - 42) =      2.97408  eV     1   --> A'             
     e( 43 - 43) =      5.21290  eV     1   --> A'             
     e( 44 - 44) =      5.22964  eV     1   --> A'             
     e( 45 - 45) =      5.24117  eV     1   --> A'             
     e( 46 - 46) =      5.29516  eV     1   --> A'             
     e( 47 - 47) =      5.30191  eV     1   --> A''            
     e( 48 - 48) =      5.32572  eV     1   --> A'             
     e( 49 - 49) =      5.34059  eV     1   --> A''            
     e( 50 - 50) =      5.35946  eV     1   --> A''            
     e( 51 - 51) =      5.41902  eV     1   --> A'             
     e( 52 - 52) =      5.49367  eV     1   --> A''            
     e( 53 - 53) =      5.51363  eV     1   --> A''            
     e( 54 - 54) =      5.55753  eV     1   --> A''            
     e( 55 - 55) =      5.63596  eV     1   --> A'             
     e( 56 - 56) =      5.64952  eV     1   --> A'             
     e( 57 - 57) =      6.65751  eV     1   --> A'             
     e( 58 - 58) =      7.12146  eV     1   --> A'             
     e( 59 - 59) =      8.10456  eV     1   --> A'             
     e( 60 - 60) =      8.10746  eV     1   --> A'             
     e( 61 - 61) =      8.74556  eV     1   --> A'             
     e( 62 - 62) =      8.74674  eV     1   --> A'             
     e( 63 - 63) =      8.77455  eV     1   --> A'             
     e( 64 - 64) =     10.75555  eV     1   --> A'             
     e( 65 - 65) =     10.78952  eV     1   --> A'             
     e( 66 - 66) =     10.81315  eV     1   --> A'             
     e( 67 - 67) =     10.84711  eV     1   --> A''            
     e( 68 - 68) =     10.89809  eV     1   --> A''            
     e( 69 - 69) =     10.92266  eV     1   --> A''            
     e( 70 - 70) =     11.92074  eV     1   --> A'             
     e( 71 - 71) =     11.96986  eV     1   --> A'             
     e( 72 - 72) =     12.06234  eV     1   --> A'             
     e( 73 - 73) =     12.07124  eV     1   --> A'             
     e( 74 - 74) =     12.10922  eV     1   --> A''            
     e( 75 - 75) =     12.11078  eV     1   --> A'             
     e( 76 - 76) =     12.15146  eV     1   --> A''            
     e( 77 - 77) =     12.22667  eV     1   --> A''            
     e( 78 - 78) =     12.39924  eV     1   --> A'             
     e( 79 - 79) =     14.15727  eV     1   --> A'             
     e( 80 - 80) =     14.15980  eV     1   --> A'             
     e( 81 - 81) =     14.53389  eV     1   --> A'             
     e( 82 - 82) =     14.87030  eV     1   --> A'             
     e( 83 - 83) =     14.94930  eV     1   --> A'             
     e( 84 - 84) =     15.05374  eV     1   --> A'             
     e( 85 - 85) =     15.24895  eV     1   --> A'             
     e( 86 - 86) =     15.26747  eV     1   --> A''            
     e( 87 - 87) =     15.35470  eV     1   --> A''            
     e( 88 - 88) =     15.58513  eV     1   --> A'             
     e( 89 - 89) =     15.62012  eV     1   --> A''            
     e( 90 - 90) =     15.72648  eV     1   --> A'             
     e( 91 - 91) =     15.98087  eV     1   --> A'             
     e( 92 - 92) =     15.99497  eV     1   --> A'             
     e( 93 - 93) =     16.00207  eV     1   --> A'             
     e( 94 - 94) =     16.42035  eV     1   --> A'             
     e( 95 - 95) =     16.45898  eV     1   --> A''            
     e( 96 - 96) =     16.50882  eV     1   --> A'             
     e( 97 - 97) =     16.71674  eV     1   --> A'             
     e( 98 - 98) =     16.73188  eV     1   --> A'             
     e( 99 - 99) =     16.74327  eV     1   --> A''            
     e(100 -100) =     16.86174  eV     1   --> A'             
     e(101 -101) =     16.86740  eV     1   --> A''            
     e(102 -102) =     16.98155  eV     1   --> A'             
     e(103 -103) =     17.24053  eV     1   --> A'             
     e(104 -104) =     17.34304  eV     1   --> A''            
     e(105 -105) =     17.54460  eV     1   --> A'             
     e(106 -106) =     17.62342  eV     1   --> A''            
     e(107 -107) =     17.71929  eV     1   --> A'             
     e(108 -108) =     17.79194  eV     1   --> A''            
     e(109 -109) =     17.80839  eV     1   --> A'             
     e(110 -110) =     18.46781  eV     1   --> A'             
     e(111 -111) =     18.47496  eV     1   --> A'             
     e(112 -112) =     19.19016  eV     1   --> A'             
     e(113 -113) =     19.29282  eV     1   --> A'             
     e(114 -114) =     19.37551  eV     1   --> A''            
     e(115 -115) =     19.40819  eV     1   --> A''            
     e(116 -116) =     19.66280  eV     1   --> A'             
     e(117 -117) =     19.76923  eV     1   --> A'             
     e(118 -118) =     19.80187  eV     1   --> A''            
     e(119 -119) =     20.07114  eV     1   --> A'             
     e(120 -120) =     20.14808  eV     1   --> A'             

 **************************************************************************

 **************************************************************************

                    xk=(  -0.00000,   0.06378,   0.07917  )

     Band symmetry, C_s (m)     point group:

     e(  1 -  3) =     -8.00893  eV     3   -->   3 A'             
     e(  4 -  5) =     -7.81604  eV     2   -->   2 A'             
     e(  6 -  6) =     -7.81438  eV     1   --> A'             
     e(  7 -  7) =     -7.80217  eV     1   --> A''            
     e(  8 -  9) =     -7.80204  eV     2   -->   2 A''            
     e( 10 - 10) =     -7.71945  eV     1   --> A'             
     e( 11 - 12) =     -7.71703  eV     2   -->   2 A'             
     e( 13 - 15) =     -7.69803  eV     3   -->   3 A''            
     e( 16 - 18) =     -7.69575  eV     3   -->   3 A'             
     e( 19 - 21) =     -7.69266  eV     3   -->   3 A''            
     e( 22 - 22) =     -7.54732  eV     1   --> A'             
     e( 23 - 24) =     -7.54344  eV     2   -->   2 A'             
     e( 25 - 27) =     -7.52538  eV     3   -->   3 A''            
     e( 28 - 28) =     -7.49853  eV     1   --> A'             
     e( 29 - 30) =     -7.49666  eV     2   -->   2 A'             
     e( 31 - 32) =     -6.74743  eV     2   -->   2 A'             
     e( 33 - 33) =     -6.62633  eV     1   --> A'             
     e( 34 - 34) =     -6.51605  eV     1   --> A'             
     e( 35 - 36) =     -6.38879  eV     2   -->   2 A'             
     e( 37 - 37) =      0.39160  eV     1   --> A'             
     e( 38 - 38) =      0.39189  eV     1   --> A'             
     e( 39 - 39) =      0.65085  eV     1   --> A'             
     e( 40 - 40) =      2.36338  eV     1   --> A'             
     e( 41 - 41) =      2.95836  eV     1   --> A'             
     e( 42 - 42) =      2.96000  eV     1   --> A'             
     e( 43 - 43) =      5.06433  eV     1   --> A'             
     e( 44 - 44) =      5.08520  eV     1   --> A'             
     e( 45 - 45) =      5.14521  eV     1   --> A'             
     e( 46 - 46) =      5.21712  eV     1   --> A'             
     e( 47 - 47) =      5.25725  eV     1   --> A'             
     e( 48 - 48) =      5.26331  eV     1   --> A'             
     e( 49 - 49) =      5.27759  eV     1   --> A''            
     e( 50 - 50) =      5.31233  eV     1   --> A''            
     e( 51 - 51) =      5.34021  eV     1   --> A''            
     e( 52 - 52) =      5.47031  eV     1   --> A''            
     e( 53 - 53) =      5.49990  eV     1   --> A''            
     e( 54 - 54) =      5.53974  eV     1   --> A''            
     e( 55 - 55) =      5.69192  eV     1   --> A'             
     e( 56 - 56) =      5.70850  eV     1   --> A'             
     e( 57 - 57) =      6.64746  eV     1   --> A'             
     e( 58 - 58) =      7.26859  eV     1   --> A'             
     e( 59 - 59) =      8.16456  eV     1   --> A'             
     e( 60 - 60) =      8.17376  eV     1   --> A'             
     e( 61 - 61) =      8.84127  eV     1   --> A'             
     e( 62 - 62) =      8.84474  eV     1   --> A'             
     e( 63 - 63) =      8.86679  eV     1   --> A'             
     e( 64 - 64) =     10.66979  eV     1   --> A'             
     e( 65 - 65) =     10.68144  eV     1   --> A'             
     e( 66 - 66) =     10.71315  eV     1   --> A'             
     e( 67 - 67) =     10.86558  eV     1   --> A''            
     e( 68 - 68) =     10.91287  eV     1   --> A''            
     e( 69 - 69) =     10.94736  eV     1   --> A''            
     e( 70 - 70) =     11.83659  eV     1   --> A'             
     e( 71 - 71) =     11.97474  eV     1   --> A'             
     e( 72 - 72) =     12.00955  eV     1   --> A'             
     e( 73 - 73) =     12.01869  eV     1   --> A'             
     e( 74 - 74) =     12.09207  eV     1   --> A'             
     e( 75 - 75) =     12.13849  eV     1   --> A''            
     e( 76 - 76) =     12.20010  eV     1   --> A''            
     e( 77 - 77) =     12.26632  eV     1   --> A''            
     e( 78 - 78) =     12.43408  eV     1   --> A'             
     e( 79 - 79) =     14.20064  eV     1   --> A'             
     e( 80 - 80) =     14.20309  eV     1   --> A'             
     e( 81 - 81) =     14.62755  eV     1   --> A'             
     e( 82 - 82) =     14.72311  eV     1   --> A'             
     e( 83 - 83) =     14.86475  eV     1   --> A'             
     e( 84 - 84) =     14.87251  eV     1   --> A'             
     e( 85 - 85) =     15.19866  eV     1   --> A'             
     e( 86 - 86) =     15.23023  eV     1   --> A''            
     e( 87 - 87) =     15.28635  eV     1   --> A''            
     e( 88 - 88) =     15.64743  eV     1   --> A'             
     e( 89 - 89) =     15.66167  eV     1   --> A''            
     e( 90 - 90) =     15.70924  eV     1   --> A'             
     e( 91 - 91) =     16.01885  eV     1   --> A'             
     e( 92 - 92) =     16.04825  eV     1   --> A'             
     e( 93 - 93) =     16.09649  eV     1   --> A'             
     e( 94 - 94) =     16.34457  eV     1   --> A''            
     e( 95 - 95) =     16.43079  eV     1   --> A'             
     e( 96 - 96) =     16.44954  eV     1   --> A'             
     e( 97 - 97) =     16.66789  eV     1   --> A'             
     e( 98 - 98) =     16.71891  eV     1   --> A'             
     e( 99 - 99) =     16.82613  eV     1   --> A''            
     e(100 -100) =     16.93944  eV     1   --> A''            
     e(101 -101) =     17.01220  eV     1   --> A'             
     e(102 -102) =     17.11429  eV     1   --> A'             
     e(103 -103) =     17.36682  eV     1   --> A'             
     e(104 -104) =     17.36721  eV     1   --> A''            
     e(105 -105) =     17.70521  eV     1   --> A'             
     e(106 -106) =     17.75826  eV     1   --> A''            
     e(107 -107) =     17.75838  eV     1   --> A''            
     e(108 -108) =     17.77877  eV     1   --> A'             
     e(109 -109) =     17.88003  eV     1   --> A'             
     e(110 -110) =     18.46381  eV     1   --> A'             
     e(111 -111) =     18.50494  eV     1   --> A'             
     e(112 -112) =     19.22604  eV     1   --> A'             
     e(113 -113) =     19.23116  eV     1   --> A'             
     e(114 -114) =     19.35645  eV     1   --> A''            
     e(115 -115) =     19.46637  eV     1   --> A''            
     e(116 -116) =     19.69509  eV     1   --> A'             
     e(117 -117) =     19.97275  eV     1   --> A''            
     e(118 -118) =     19.98565  eV     1   --> A'             
     e(119 -119) =     20.00280  eV     1   --> A'             
     e(120 -120) =     20.16775  eV     1   --> A'             

 **************************************************************************

 **************************************************************************

                    xk=(  -0.00000,   0.08504,   0.07917  )

     Band symmetry, C_s (m)     point group:

     e(  1 -  3) =     -8.00881  eV     3   -->   3 A'             
     e(  4 -  4) =     -7.82601  eV     1   --> A'             
     e(  5 -  5) =     -7.82589  eV     1   --> A'             
     e(  6 -  6) =     -7.82316  eV     1   --> A'             
     e(  7 -  7) =     -7.80198  eV     1   --> A''            
     e(  8 -  9) =     -7.80186  eV     2   -->   2 A''            
     e( 10 - 10) =     -7.73301  eV     1   --> A'             
     e( 11 - 12) =     -7.72904  eV     2   -->   2 A'             
     e( 13 - 15) =     -7.69664  eV     3   -->   3 A'             
     e( 16 - 18) =     -7.69635  eV     3   -->   3 A''            
     e( 19 - 21) =     -7.69123  eV     3   -->   3 A''            
     e( 22 - 22) =     -7.55186  eV     1   --> A'             
     e( 23 - 24) =     -7.54822  eV     2   -->   2 A'             
     e( 25 - 27) =     -7.52556  eV     3   -->   3 A''            
     e( 28 - 28) =     -7.48864  eV     1   --> A'             
     e( 29 - 30) =     -7.48736  eV     2   -->   2 A'             
     e( 31 - 32) =     -6.72004  eV     2   -->   2 A'             
     e( 33 - 33) =     -6.60080  eV     1   --> A'             
     e( 34 - 34) =     -6.49107  eV     1   --> A'             
     e( 35 - 36) =     -6.36535  eV     2   -->   2 A'             
     e( 37 - 37) =      0.40693  eV     1   --> A'             
     e( 38 - 38) =      0.40760  eV     1   --> A'             
     e( 39 - 39) =      0.65875  eV     1   --> A'             
     e( 40 - 40) =      2.37478  eV     1   --> A'             
     e( 41 - 41) =      2.93532  eV     1   --> A'             
     e( 42 - 42) =      2.93923  eV     1   --> A'             
     e( 43 - 43) =      4.89997  eV     1   --> A'             
     e( 44 - 44) =      4.92220  eV     1   --> A'             
     e( 45 - 45) =      5.01389  eV     1   --> A'             
     e( 46 - 46) =      5.09003  eV     1   --> A'             
     e( 47 - 47) =      5.12356  eV     1   --> A'             
     e( 48 - 48) =      5.17018  eV     1   --> A'             
     e( 49 - 49) =      5.24464  eV     1   --> A''            
     e( 50 - 50) =      5.27584  eV     1   --> A''            
     e( 51 - 51) =      5.31233  eV     1   --> A''            
     e( 52 - 52) =      5.44010  eV     1   --> A''            
     e( 53 - 53) =      5.47903  eV     1   --> A''            
     e( 54 - 54) =      5.51521  eV     1   --> A''            
     e( 55 - 55) =      5.73762  eV     1   --> A'             
     e( 56 - 56) =      5.75443  eV     1   --> A'             
     e( 57 - 57) =      6.63116  eV     1   --> A'             
     e( 58 - 58) =      7.43721  eV     1   --> A'             
     e( 59 - 59) =      8.23628  eV     1   --> A'             
     e( 60 - 60) =      8.25646  eV     1   --> A'             
     e( 61 - 61) =      8.96279  eV     1   --> A'             
     e( 62 - 62) =      8.96946  eV     1   --> A'             
     e( 63 - 63) =      8.98342  eV     1   --> A'             
     e( 64 - 64) =     10.55196  eV     1   --> A'             
     e( 65 - 65) =     10.56503  eV     1   --> A'             
     e( 66 - 66) =     10.58797  eV     1   --> A'             
     e( 67 - 67) =     10.88985  eV     1   --> A''            
     e( 68 - 68) =     10.93533  eV     1   --> A''            
     e( 69 - 69) =     10.97698  eV     1   --> A''            
     e( 70 - 70) =     11.72386  eV     1   --> A'             
     e( 71 - 71) =     11.90390  eV     1   --> A'             
     e( 72 - 72) =     11.90683  eV     1   --> A'             
     e( 73 - 73) =     12.01675  eV     1   --> A'             
     e( 74 - 74) =     12.13278  eV     1   --> A'             
     e( 75 - 75) =     12.18297  eV     1   --> A''            
     e( 76 - 76) =     12.26182  eV     1   --> A''            
     e( 77 - 77) =     12.32042  eV     1   --> A''            
     e( 78 - 78) =     12.47940  eV     1   --> A'             
     e( 79 - 79) =     14.15622  eV     1   --> A'             
     e( 80 - 80) =     14.17948  eV     1   --> A'             
     e( 81 - 81) =     14.59887  eV     1   --> A'             
     e( 82 - 82) =     14.68396  eV     1   --> A'             
     e( 83 - 83) =     14.80510  eV     1   --> A'             
     e( 84 - 84) =     14.86547  eV     1   --> A'             
     e( 85 - 85) =     15.12778  eV     1   --> A'             
     e( 86 - 86) =     15.19074  eV     1   --> A''            
     e( 87 - 87) =     15.22705  eV     1   --> A''            
     e( 88 - 88) =     15.57451  eV     1   --> A'             
     e( 89 - 89) =     15.65096  eV     1   --> A'             
     e( 90 - 90) =     15.69090  eV     1   --> A''            
     e( 91 - 91) =     16.03461  eV     1   --> A'             
     e( 92 - 92) =     16.16946  eV     1   --> A'             
     e( 93 - 93) =     16.17716  eV     1   --> A'             
     e( 94 - 94) =     16.23158  eV     1   --> A''            
     e( 95 - 95) =     16.43424  eV     1   --> A'             
     e( 96 - 96) =     16.48178  eV     1   --> A'             
     e( 97 - 97) =     16.63470  eV     1   --> A'             
     e( 98 - 98) =     16.85205  eV     1   --> A'             
     e( 99 - 99) =     16.91896  eV     1   --> A''            
     e(100 -100) =     16.99146  eV     1   --> A''            
     e(101 -101) =     17.10795  eV     1   --> A'             
     e(102 -102) =     17.26236  eV     1   --> A'             
     e(103 -103) =     17.43431  eV     1   --> A''            
     e(104 -104) =     17.56501  eV     1   --> A'             
     e(105 -105) =     17.73383  eV     1   --> A''            
     e(106 -106) =     17.76613  eV     1   --> A'             
     e(107 -107) =     17.85614  eV     1   --> A'             
     e(108 -108) =     17.91096  eV     1   --> A''            
     e(109 -109) =     18.00014  eV     1   --> A'             
     e(110 -110) =     18.43941  eV     1   --> A'             
     e(111 -111) =     18.55263  eV     1   --> A'             
     e(112 -112) =     19.21516  eV     1   --> A'             
     e(113 -113) =     19.34065  eV     1   --> A'             
     e(114 -114) =     19.37765  eV     1   --> A''            
     e(115 -115) =     19.53001  eV     1   --> A''            
     e(116 -116) =     19.73122  eV     1   --> A'             
     e(117 -117) =     19.93597  eV     1   --> A'             
     e(118 -118) =     20.16094  eV     1   --> A''            
     e(119 -119) =     20.19189  eV     1   --> A'             
     e(120 -120) =     20.23134  eV     1   --> A'             

 **************************************************************************

 **************************************************************************

                    xk=(  -0.00000,   0.10630,   0.07917  )

     Band symmetry, C_s (m)     point group:

     e(  1 -  2) =     -8.00878  eV     2   -->   2 A'             
     e(  3 -  3) =     -8.00853  eV     1   --> A'             
     e(  4 -  4) =     -7.83798  eV     1   --> A'             
     e(  5 -  5) =     -7.83783  eV     1   --> A'             
     e(  6 -  6) =     -7.83382  eV     1   --> A'             
     e(  7 -  7) =     -7.80178  eV     1   --> A''            
     e(  8 -  8) =     -7.80166  eV     1   --> A''            
     e(  9 -  9) =     -7.80156  eV     1   --> A''            
     e( 10 - 10) =     -7.74895  eV     1   --> A'             
     e( 11 - 11) =     -7.74336  eV     1   --> A'             
     e( 12 - 12) =     -7.74325  eV     1   --> A'             
     e( 13 - 15) =     -7.69772  eV     3   -->   3 A'             
     e( 16 - 18) =     -7.69421  eV     3   -->   3 A''            
     e( 19 - 21) =     -7.68939  eV     3   -->   3 A''            
     e( 22 - 22) =     -7.55559  eV     1   --> A'             
     e( 23 - 23) =     -7.55224  eV     1   --> A'             
     e( 24 - 24) =     -7.55214  eV     1   --> A'             
     e( 25 - 27) =     -7.52578  eV     3   -->   3 A''            
     e( 28 - 28) =     -7.47896  eV     1   --> A'             
     e( 29 - 30) =     -7.47818  eV     2   -->   2 A'             
     e( 31 - 31) =     -6.68581  eV     1   --> A'             
     e( 32 - 32) =     -6.68571  eV     1   --> A'             
     e( 33 - 33) =     -6.56873  eV     1   --> A'             
     e( 34 - 34) =     -6.45971  eV     1   --> A'             
     e( 35 - 35) =     -6.33587  eV     1   --> A'             
     e( 36 - 36) =     -6.33576  eV     1   --> A'             
     e( 37 - 37) =      0.42597  eV     1   --> A'             
     e( 38 - 38) =      0.42732  eV     1   --> A'             
     e( 39 - 39) =      0.66811  eV     1   --> A'             
     e( 40 - 40) =      2.38842  eV     1   --> A'             
     e( 41 - 41) =      2.90297  eV     1   --> A'             
     e( 42 - 42) =      2.91068  eV     1   --> A'             
     e( 43 - 43) =      4.72405  eV     1   --> A'             
     e( 44 - 44) =      4.74488  eV     1   --> A'             
     e( 45 - 45) =      4.84160  eV     1   --> A'             
     e( 46 - 46) =      4.92512  eV     1   --> A'             
     e( 47 - 47) =      5.02177  eV     1   --> A'             
     e( 48 - 48) =      5.07230  eV     1   --> A'             
     e( 49 - 49) =      5.20400  eV     1   --> A''            
     e( 50 - 50) =      5.23205  eV     1   --> A''            
     e( 51 - 51) =      5.27676  eV     1   --> A''            
     e( 52 - 52) =      5.40349  eV     1   --> A''            
     e( 53 - 53) =      5.45148  eV     1   --> A''            
     e( 54 - 54) =      5.48439  eV     1   --> A''            
     e( 55 - 55) =      5.77482  eV     1   --> A'             
     e( 56 - 56) =      5.78911  eV     1   --> A'             
     e( 57 - 57) =      6.60767  eV     1   --> A'             
     e( 58 - 58) =      7.61368  eV     1   --> A'             
     e( 59 - 59) =      8.31166  eV     1   --> A'             
     e( 60 - 60) =      8.34776  eV     1   --> A'             
     e( 61 - 61) =      9.09866  eV     1   --> A'             
     e( 62 - 62) =      9.10818  eV     1   --> A'             
     e( 63 - 63) =      9.11305  eV     1   --> A'             
     e( 64 - 64) =     10.41581  eV     1   --> A'             
     e( 65 - 65) =     10.45141  eV     1   --> A'             
     e( 66 - 66) =     10.45368  eV     1   --> A'             
     e( 67 - 67) =     10.91846  eV     1   --> A''            
     e( 68 - 68) =     10.96441  eV     1   --> A''            
     e( 69 - 69) =     11.00970  eV     1   --> A''            
     e( 70 - 70) =     11.59629  eV     1   --> A'             
     e( 71 - 71) =     11.77388  eV     1   --> A'             
     e( 72 - 72) =     11.80552  eV     1   --> A'             
     e( 73 - 73) =     12.05312  eV     1   --> A'             
     e( 74 - 74) =     12.18795  eV     1   --> A'             
     e( 75 - 75) =     12.24163  eV     1   --> A''            
     e( 76 - 76) =     12.33480  eV     1   --> A''            
     e( 77 - 77) =     12.38759  eV     1   --> A''            
     e( 78 - 78) =     12.53462  eV     1   --> A'             
     e( 79 - 79) =     14.01162  eV     1   --> A'             
     e( 80 - 80) =     14.07743  eV     1   --> A'             
     e( 81 - 81) =     14.40293  eV     1   --> A'             
     e( 82 - 82) =     14.74323  eV     1   --> A'             
     e( 83 - 83) =     14.86297  eV     1   --> A'             
     e( 84 - 84) =     14.95887  eV     1   --> A'             
     e( 85 - 85) =     15.06793  eV     1   --> A'             
     e( 86 - 86) =     15.15622  eV     1   --> A''            
     e( 87 - 87) =     15.18076  eV     1   --> A''            
     e( 88 - 88) =     15.38910  eV     1   --> A'             
     e( 89 - 89) =     15.62384  eV     1   --> A'             
     e( 90 - 90) =     15.71182  eV     1   --> A''            
     e( 91 - 91) =     16.04738  eV     1   --> A'             
     e( 92 - 92) =     16.12361  eV     1   --> A''            
     e( 93 - 93) =     16.12610  eV     1   --> A'             
     e( 94 - 94) =     16.31218  eV     1   --> A'             
     e( 95 - 95) =     16.58437  eV     1   --> A'             
     e( 96 - 96) =     16.59410  eV     1   --> A'             
     e( 97 - 97) =     16.62311  eV     1   --> A'             
     e( 98 - 98) =     17.00031  eV     1   --> A''            
     e( 99 - 99) =     17.02223  eV     1   --> A''            
     e(100 -100) =     17.05122  eV     1   --> A'             
     e(101 -101) =     17.13417  eV     1   --> A'             
     e(102 -102) =     17.41469  eV     1   --> A'             
     e(103 -103) =     17.54058  eV     1   --> A''            
     e(104 -104) =     17.74031  eV     1   --> A''            
     e(105 -105) =     17.75694  eV     1   --> A'             
     e(106 -106) =     17.86025  eV     1   --> A'             
     e(107 -107) =     17.96015  eV     1   --> A'             
     e(108 -108) =     18.06458  eV     1   --> A'             
     e(109 -109) =     18.08003  eV     1   --> A''            
     e(110 -110) =     18.43115  eV     1   --> A'             
     e(111 -111) =     18.63918  eV     1   --> A'             
     e(112 -112) =     19.19134  eV     1   --> A'             
     e(113 -113) =     19.43489  eV     1   --> A''            
     e(114 -114) =     19.51380  eV     1   --> A'             
     e(115 -115) =     19.58718  eV     1   --> A''            
     e(116 -116) =     19.76686  eV     1   --> A'             
     e(117 -117) =     20.00592  eV     1   --> A'             
     e(118 -118) =     20.25400  eV     1   --> A'             
     e(119 -119) =     20.36310  eV     1   --> A''            
     e(120 -120) =     20.39149  eV     1   --> A'             

 **************************************************************************

 **************************************************************************

                    xk=(  -0.00000,   0.12756,   0.07917  )

     Band symmetry, C_s (m)     point group:

     e(  1 -  2) =     -8.00892  eV     2   -->   2 A'             
     e(  3 -  3) =     -8.00857  eV     1   --> A'             
     e(  4 -  4) =     -7.85143  eV     1   --> A'             
     e(  5 -  5) =     -7.85123  eV     1   --> A'             
     e(  6 -  6) =     -7.84595  eV     1   --> A'             
     e(  7 -  7) =     -7.80157  eV     1   --> A''            
     e(  8 -  8) =     -7.80146  eV     1   --> A''            
     e(  9 -  9) =     -7.80134  eV     1   --> A''            
     e( 10 - 10) =     -7.76657  eV     1   --> A'             
     e( 11 - 11) =     -7.75941  eV     1   --> A'             
     e( 12 - 12) =     -7.75926  eV     1   --> A'             
     e( 13 - 15) =     -7.69896  eV     3   -->   3 A'             
     e( 16 - 18) =     -7.69167  eV     3   -->   3 A''            
     e( 19 - 21) =     -7.68716  eV     3   -->   3 A''            
     e( 22 - 22) =     -7.55872  eV     1   --> A'             
     e( 23 - 23) =     -7.55568  eV     1   --> A'             
     e( 24 - 24) =     -7.55555  eV     1   --> A'             
     e( 25 - 27) =     -7.52603  eV     3   -->   3 A''            
     e( 28 - 28) =     -7.46962  eV     1   --> A'             
     e( 29 - 30) =     -7.46923  eV     2   -->   2 A'             
     e( 31 - 31) =     -6.64535  eV     1   --> A'             
     e( 32 - 32) =     -6.64517  eV     1   --> A'             
     e( 33 - 33) =     -6.53063  eV     1   --> A'             
     e( 34 - 34) =     -6.42247  eV     1   --> A'             
     e( 35 - 35) =     -6.30079  eV     1   --> A'             
     e( 36 - 36) =     -6.30061  eV     1   --> A'             
     e( 37 - 37) =      0.44822  eV     1   --> A'             
     e( 38 - 38) =      0.45063  eV     1   --> A'             
     e( 39 - 39) =      0.67832  eV     1   --> A'             
     e( 40 - 40) =      2.40336  eV     1   --> A'             
     e( 41 - 41) =      2.85966  eV     1   --> A'             
     e( 42 - 42) =      2.87301  eV     1   --> A'             
     e( 43 - 43) =      4.54032  eV     1   --> A'             
     e( 44 - 44) =      4.55747  eV     1   --> A'             
     e( 45 - 45) =      4.64449  eV     1   --> A'             
     e( 46 - 46) =      4.76744  eV     1   --> A'             
     e( 47 - 47) =      4.91838  eV     1   --> A'             
     e( 48 - 48) =      4.97118  eV     1   --> A'             
     e( 49 - 49) =      5.15675  eV     1   --> A''            
     e( 50 - 50) =      5.18200  eV     1   --> A''            
     e( 51 - 51) =      5.23457  eV     1   --> A''            
     e( 52 - 52) =      5.36105  eV     1   --> A''            
     e( 53 - 53) =      5.41786  eV     1   --> A''            
     e( 54 - 54) =      5.44783  eV     1   --> A''            
     e( 55 - 55) =      5.80511  eV     1   --> A'             
     e( 56 - 56) =      5.81422  eV     1   --> A'             
     e( 57 - 57) =      6.57618  eV     1   --> A'             
     e( 58 - 58) =      7.78911  eV     1   --> A'             
     e( 59 - 59) =      8.38324  eV     1   --> A'             
     e( 60 - 60) =      8.44003  eV     1   --> A'             
     e( 61 - 61) =      9.23253  eV     1   --> A'             
     e( 62 - 62) =      9.24038  eV     1   --> A'             
     e( 63 - 63) =      9.24194  eV     1   --> A'             
     e( 64 - 64) =     10.29206  eV     1   --> A'             
     e( 65 - 65) =     10.32075  eV     1   --> A'             
     e( 66 - 66) =     10.35101  eV     1   --> A'             
     e( 67 - 67) =     10.94968  eV     1   --> A''            
     e( 68 - 68) =     10.99870  eV     1   --> A''            
     e( 69 - 69) =     11.04351  eV     1   --> A''            
     e( 70 - 70) =     11.46248  eV     1   --> A'             
     e( 71 - 71) =     11.63526  eV     1   --> A'             
     e( 72 - 72) =     11.69284  eV     1   --> A'             
     e( 73 - 73) =     12.10493  eV     1   --> A'             
     e( 74 - 74) =     12.25669  eV     1   --> A'             
     e( 75 - 75) =     12.31309  eV     1   --> A''            
     e( 76 - 76) =     12.41680  eV     1   --> A''            
     e( 77 - 77) =     12.46614  eV     1   --> A''            
     e( 78 - 78) =     12.59876  eV     1   --> A'             
     e( 79 - 79) =     13.83616  eV     1   --> A'             
     e( 80 - 80) =     13.93228  eV     1   --> A'             
     e( 81 - 81) =     14.20248  eV     1   --> A'             
     e( 82 - 82) =     14.80445  eV     1   --> A'             
     e( 83 - 83) =     14.81591  eV     1   --> A'             
     e( 84 - 84) =     15.07240  eV     1   --> A'             
     e( 85 - 85) =     15.07390  eV     1   --> A'             
     e( 86 - 86) =     15.13253  eV     1   --> A''            
     e( 87 - 87) =     15.15075  eV     1   --> A''            
     e( 88 - 88) =     15.20722  eV     1   --> A'             
     e( 89 - 89) =     15.61626  eV     1   --> A'             
     e( 90 - 90) =     15.73002  eV     1   --> A''            
     e( 91 - 91) =     16.02456  eV     1   --> A''            
     e( 92 - 92) =     16.06170  eV     1   --> A'             
     e( 93 - 93) =     16.09006  eV     1   --> A'             
     e( 94 - 94) =     16.38019  eV     1   --> A'             
     e( 95 - 95) =     16.68953  eV     1   --> A'             
     e( 96 - 96) =     16.69370  eV     1   --> A'             
     e( 97 - 97) =     16.82123  eV     1   --> A'             
     e( 98 - 98) =     17.03401  eV     1   --> A''            
     e( 99 - 99) =     17.04892  eV     1   --> A''            
     e(100 -100) =     17.13520  eV     1   --> A'             
     e(101 -101) =     17.27672  eV     1   --> A'             
     e(102 -102) =     17.54464  eV     1   --> A'             
     e(103 -103) =     17.68016  eV     1   --> A''            
     e(104 -104) =     17.79933  eV     1   --> A''            
     e(105 -105) =     17.87832  eV     1   --> A'             
     e(106 -106) =     18.00026  eV     1   --> A'             
     e(107 -107) =     18.10738  eV     1   --> A'             
     e(108 -108) =     18.11820  eV     1   --> A'             
     e(109 -109) =     18.26492  eV     1   --> A''            
     e(110 -110) =     18.43860  eV     1   --> A'             
     e(111 -111) =     18.77709  eV     1   --> A'             
     e(112 -112) =     19.17053  eV     1   --> A'             
     e(113 -113) =     19.51630  eV     1   --> A''            
     e(114 -114) =     19.62847  eV     1   --> A''            
     e(115 -115) =     19.72148  eV     1   --> A'             
     e(116 -116) =     19.79431  eV     1   --> A'             
     e(117 -117) =     20.19235  eV     1   --> A'             
     e(118 -118) =     20.36916  eV     1   --> A'             
     e(119 -119) =     20.38079  eV     1   --> A'             
     e(120 -120) =     20.38089  eV     1   --> A''            

 **************************************************************************

 **************************************************************************

                    xk=(  -0.00000,   0.14882,   0.07917  )

     Band symmetry, C_s (m)     point group:

     e(  1 -  2) =     -8.00938  eV     2   -->   2 A'             
     e(  3 -  3) =     -8.00885  eV     1   --> A'             
     e(  4 -  4) =     -7.86577  eV     1   --> A'             
     e(  5 -  5) =     -7.86551  eV     1   --> A'             
     e(  6 -  6) =     -7.85908  eV     1   --> A'             
     e(  7 -  8) =     -7.80137  eV     2   -->   2 A''            
     e(  9 -  9) =     -7.80113  eV     1   --> A''            
     e( 10 - 10) =     -7.78526  eV     1   --> A'             
     e( 11 - 11) =     -7.77670  eV     1   --> A'             
     e( 12 - 12) =     -7.77649  eV     1   --> A'             
     e( 13 - 15) =     -7.70033  eV     3   -->   3 A'             
     e( 16 - 18) =     -7.68875  eV     3   -->   3 A''            
     e( 19 - 21) =     -7.68454  eV     3   -->   3 A''            
     e( 22 - 22) =     -7.56142  eV     1   --> A'             
     e( 23 - 23) =     -7.55867  eV     1   --> A'             
     e( 24 - 24) =     -7.55851  eV     1   --> A'             
     e( 25 - 25) =     -7.52631  eV     1   --> A''            
     e( 26 - 27) =     -7.52621  eV     2   -->   2 A''            
     e( 28 - 28) =     -7.46070  eV     1   --> A'             
     e( 29 - 30) =     -7.46059  eV     2   -->   2 A'             
     e( 31 - 31) =     -6.59927  eV     1   --> A'             
     e( 32 - 32) =     -6.59899  eV     1   --> A'             
     e( 33 - 33) =     -6.48701  eV     1   --> A'             
     e( 34 - 34) =     -6.37990  eV     1   --> A'             
     e( 35 - 35) =     -6.26060  eV     1   --> A'             
     e( 36 - 36) =     -6.26032  eV     1   --> A'             
     e( 37 - 37) =      0.47302  eV     1   --> A'             
     e( 38 - 38) =      0.47697  eV     1   --> A'             
     e( 39 - 39) =      0.68861  eV     1   --> A'             
     e( 40 - 40) =      2.41821  eV     1   --> A'             
     e( 41 - 41) =      2.80374  eV     1   --> A'             
     e( 42 - 42) =      2.82490  eV     1   --> A'             
     e( 43 - 43) =      4.35230  eV     1   --> A'             
     e( 44 - 44) =      4.36415  eV     1   --> A'             
     e( 45 - 45) =      4.44233  eV     1   --> A'             
     e( 46 - 46) =      4.60892  eV     1   --> A'             
     e( 47 - 47) =      4.81896  eV     1   --> A'             
     e( 48 - 48) =      4.87332  eV     1   --> A'             
     e( 49 - 49) =      5.10402  eV     1   --> A''            
     e( 50 - 50) =      5.12677  eV     1   --> A''            
     e( 51 - 51) =      5.18691  eV     1   --> A''            
     e( 52 - 52) =      5.31347  eV     1   --> A''            
     e( 53 - 53) =      5.37889  eV     1   --> A''            
     e( 54 - 54) =      5.40620  eV     1   --> A''            
     e( 55 - 55) =      5.82959  eV     1   --> A'             
     e( 56 - 56) =      5.83090  eV     1   --> A'             
     e( 57 - 57) =      6.53603  eV     1   --> A'             
     e( 58 - 58) =      7.95722  eV     1   --> A'             
     e( 59 - 59) =      8.44457  eV     1   --> A'             
     e( 60 - 60) =      8.52623  eV     1   --> A'             
     e( 61 - 61) =      9.33829  eV     1   --> A'             
     e( 62 - 62) =      9.34041  eV     1   --> A'             
     e( 63 - 63) =      9.34386  eV     1   --> A'             
     e( 64 - 64) =     10.20963  eV     1   --> A'             
     e( 65 - 65) =     10.22182  eV     1   --> A'             
     e( 66 - 66) =     10.27741  eV     1   --> A'             
     e( 67 - 67) =     10.98165  eV     1   --> A''            
     e( 68 - 68) =     11.03659  eV     1   --> A''            
     e( 69 - 69) =     11.07636  eV     1   --> A''            
     e( 70 - 70) =     11.32858  eV     1   --> A'             
     e( 71 - 71) =     11.49359  eV     1   --> A'             
     e( 72 - 72) =     11.57452  eV     1   --> A'             
     e( 73 - 73) =     12.17364  eV     1   --> A'             
     e( 74 - 74) =     12.33924  eV     1   --> A'             
     e( 75 - 75) =     12.39565  eV     1   --> A''            
     e( 76 - 76) =     12.50515  eV     1   --> A''            
     e( 77 - 77) =     12.55408  eV     1   --> A''            
     e( 78 - 78) =     12.66999  eV     1   --> A'             
     e( 79 - 79) =     13.66347  eV     1   --> A'             
     e( 80 - 80) =     13.77489  eV     1   --> A'             
     e( 81 - 81) =     14.01965  eV     1   --> A'             
     e( 82 - 82) =     14.70312  eV     1   --> A'             
     e( 83 - 83) =     14.81082  eV     1   --> A'             
     e( 84 - 84) =     14.95154  eV     1   --> A'             
     e( 85 - 85) =     15.07982  eV     1   --> A'             
     e( 86 - 86) =     15.12424  eV     1   --> A''            
     e( 87 - 87) =     15.13973  eV     1   --> A''            
     e( 88 - 88) =     15.24478  eV     1   --> A'             
     e( 89 - 89) =     15.65528  eV     1   --> A'             
     e( 90 - 90) =     15.75073  eV     1   --> A''            
     e( 91 - 91) =     15.93891  eV     1   --> A''            
     e( 92 - 92) =     16.04583  eV     1   --> A'             
     e( 93 - 93) =     16.17779  eV     1   --> A'             
     e( 94 - 94) =     16.34154  eV     1   --> A'             
     e( 95 - 95) =     16.74463  eV     1   --> A'             
     e( 96 - 96) =     16.83645  eV     1   --> A'             
     e( 97 - 97) =     17.03197  eV     1   --> A''            
     e( 98 - 98) =     17.05944  eV     1   --> A''            
     e( 99 - 99) =     17.06018  eV     1   --> A'             
     e(100 -100) =     17.19591  eV     1   --> A'             
     e(101 -101) =     17.51527  eV     1   --> A'             
     e(102 -102) =     17.62993  eV     1   --> A'             
     e(103 -103) =     17.84689  eV     1   --> A''            
     e(104 -104) =     17.91652  eV     1   --> A''            
     e(105 -105) =     17.99471  eV     1   --> A'             
     e(106 -106) =     18.02850  eV     1   --> A'             
     e(107 -107) =     18.23419  eV     1   --> A'             
     e(108 -108) =     18.37461  eV     1   --> A'             
     e(109 -109) =     18.43503  eV     1   --> A'             
     e(110 -110) =     18.46464  eV     1   --> A''            
     e(111 -111) =     18.95098  eV     1   --> A'             
     e(112 -112) =     19.20470  eV     1   --> A'             
     e(113 -113) =     19.59859  eV     1   --> A''            
     e(114 -114) =     19.64945  eV     1   --> A''            
     e(115 -115) =     19.82307  eV     1   --> A'             
     e(116 -116) =     19.92238  eV     1   --> A'             
     e(117 -117) =     20.29949  eV     1   --> A'             
     e(118 -118) =     20.32755  eV     1   --> A''            
     e(119 -119) =     20.44090  eV     1   --> A'             
     e(120 -120) =     20.57154  eV     1   --> A'             

 **************************************************************************

 **************************************************************************

                    xk=(  -0.00000,   0.17008,   0.07917  )

     Band symmetry, C_s (m)     point group:

     e(  1 -  2) =     -8.01035  eV     2   -->   2 A'             
     e(  3 -  3) =     -8.00954  eV     1   --> A'             
     e(  4 -  4) =     -7.88040  eV     1   --> A'             
     e(  5 -  5) =     -7.88009  eV     1   --> A'             
     e(  6 -  6) =     -7.87272  eV     1   --> A'             
     e(  7 -  7) =     -7.80453  eV     1   --> A'             
     e(  8 -  9) =     -7.80121  eV     2   -->   2 A''            
     e( 10 - 10) =     -7.80096  eV     1   --> A''            
     e( 11 - 11) =     -7.79477  eV     1   --> A'             
     e( 12 - 12) =     -7.79448  eV     1   --> A'             
     e( 13 - 15) =     -7.70182  eV     3   -->   3 A'             
     e( 16 - 18) =     -7.68550  eV     3   -->   3 A''            
     e( 19 - 21) =     -7.68156  eV     3   -->   3 A''            
     e( 22 - 22) =     -7.56382  eV     1   --> A'             
     e( 23 - 23) =     -7.56134  eV     1   --> A'             
     e( 24 - 24) =     -7.56115  eV     1   --> A'             
     e( 25 - 25) =     -7.52662  eV     1   --> A''            
     e( 26 - 27) =     -7.52650  eV     2   -->   2 A''            
     e( 28 - 30) =     -7.45229  eV     3   -->   3 A'             
     e( 31 - 31) =     -6.54818  eV     1   --> A'             
     e( 32 - 32) =     -6.54775  eV     1   --> A'             
     e( 33 - 33) =     -6.43844  eV     1   --> A'             
     e( 34 - 34) =     -6.33255  eV     1   --> A'             
     e( 35 - 35) =     -6.21583  eV     1   --> A'             
     e( 36 - 36) =     -6.21540  eV     1   --> A'             
     e( 37 - 37) =      0.49950  eV     1   --> A'             
     e( 38 - 38) =      0.50564  eV     1   --> A'             
     e( 39 - 39) =      0.69805  eV     1   --> A'             
     e( 40 - 40) =      2.43089  eV     1   --> A'             
     e( 41 - 41) =      2.73394  eV     1   --> A'             
     e( 42 - 42) =      2.76519  eV     1   --> A'             
     e( 43 - 43) =      4.16330  eV     1   --> A'             
     e( 44 - 44) =      4.16882  eV     1   --> A'             
     e( 45 - 45) =      4.24408  eV     1   --> A'             
     e( 46 - 46) =      4.45062  eV     1   --> A'             
     e( 47 - 47) =      4.72800  eV     1   --> A'             
     e( 48 - 48) =      4.78383  eV     1   --> A'             
     e( 49 - 49) =      5.04695  eV     1   --> A''            
     e( 50 - 50) =      5.06747  eV     1   --> A''            
     e( 51 - 51) =      5.13490  eV     1   --> A''            
     e( 52 - 52) =      5.26155  eV     1   --> A''            
     e( 53 - 53) =      5.33539  eV     1   --> A''            
     e( 54 - 54) =      5.36029  eV     1   --> A''            
     e( 55 - 55) =      5.83974  eV     1   --> A'             
     e( 56 - 56) =      5.84888  eV     1   --> A'             
     e( 57 - 57) =      6.48664  eV     1   --> A'             
     e( 58 - 58) =      8.11312  eV     1   --> A'             
     e( 59 - 59) =      8.49044  eV     1   --> A'             
     e( 60 - 60) =      8.60015  eV     1   --> A'             
     e( 61 - 61) =      9.36620  eV     1   --> A'             
     e( 62 - 62) =      9.37944  eV     1   --> A'             
     e( 63 - 63) =      9.39737  eV     1   --> A'             
     e( 64 - 64) =     10.18982  eV     1   --> A'             
     e( 65 - 65) =     10.20316  eV     1   --> A'             
     e( 66 - 66) =     10.25640  eV     1   --> A'             
     e( 67 - 67) =     11.01250  eV     1   --> A''            
     e( 68 - 68) =     11.07637  eV     1   --> A''            
     e( 69 - 69) =     11.10634  eV     1   --> A''            
     e( 70 - 70) =     11.19916  eV     1   --> A'             
     e( 71 - 71) =     11.35343  eV     1   --> A'             
     e( 72 - 72) =     11.45447  eV     1   --> A'             
     e( 73 - 73) =     12.26093  eV     1   --> A'             
     e( 74 - 74) =     12.43563  eV     1   --> A'             
     e( 75 - 75) =     12.48732  eV     1   --> A''            
     e( 76 - 76) =     12.59675  eV     1   --> A''            
     e( 77 - 77) =     12.64918  eV     1   --> A''            
     e( 78 - 78) =     12.74538  eV     1   --> A'             
     e( 79 - 79) =     13.50765  eV     1   --> A'             
     e( 80 - 80) =     13.62152  eV     1   --> A'             
     e( 81 - 81) =     13.86381  eV     1   --> A'             
     e( 82 - 82) =     14.57583  eV     1   --> A'             
     e( 83 - 83) =     14.75504  eV     1   --> A'             
     e( 84 - 84) =     14.75950  eV     1   --> A'             
     e( 85 - 85) =     15.04807  eV     1   --> A'             
     e( 86 - 86) =     15.13481  eV     1   --> A''            
     e( 87 - 87) =     15.14981  eV     1   --> A''            
     e( 88 - 88) =     15.31084  eV     1   --> A'             
     e( 89 - 89) =     15.71740  eV     1   --> A'             
     e( 90 - 90) =     15.77533  eV     1   --> A''            
     e( 91 - 91) =     15.87428  eV     1   --> A''            
     e( 92 - 92) =     16.10664  eV     1   --> A'             
     e( 93 - 93) =     16.25634  eV     1   --> A'             
     e( 94 - 94) =     16.26723  eV     1   --> A'             
     e( 95 - 95) =     16.78159  eV     1   --> A'             
     e( 96 - 96) =     16.97291  eV     1   --> A'             
     e( 97 - 97) =     17.02261  eV     1   --> A''            
     e( 98 - 98) =     17.04507  eV     1   --> A''            
     e( 99 - 99) =     17.28110  eV     1   --> A'             
     e(100 -100) =     17.31730  eV     1   --> A'             
     e(101 -101) =     17.69798  eV     1   --> A'             
     e(102 -102) =     17.75561  eV     1   --> A'             
     e(103 -103) =     17.98447  eV     1   --> A'             
     e(104 -104) =     18.03516  eV     1   --> A''            
     e(105 -105) =     18.07848  eV     1   --> A''            
     e(106 -106) =     18.21022  eV     1   --> A'             
     e(107 -107) =     18.35671  eV     1   --> A'             
     e(108 -108) =     18.50976  eV     1   --> A'             
     e(109 -109) =     18.63844  eV     1   --> A'             
     e(110 -110) =     18.67773  eV     1   --> A''            
     e(111 -111) =     19.13824  eV     1   --> A'             
     e(112 -112) =     19.29943  eV     1   --> A'             
     e(113 -113) =     19.64717  eV     1   --> A''            
     e(114 -114) =     19.65165  eV     1   --> A''            
     e(115 -115) =     19.86903  eV     1   --> A'             
     e(116 -116) =     20.00697  eV     1   --> A'             
     e(117 -117) =     20.34478  eV     1   --> A''            
     e(118 -118) =     20.37745  eV     1   --> A'             
     e(119 -119) =     20.70757  eV     1   --> A'             
     e(120 -120) =     20.80953  eV     1   --> A'             

 **************************************************************************

 **************************************************************************

                    xk=(  -0.00000,   0.19134,   0.07917  )

     Band symmetry, C_s (m)     point group:

     e(  1 -  1) =     -8.01208  eV     1   --> A'             
     e(  2 -  2) =     -8.01195  eV     1   --> A'             
     e(  3 -  3) =     -8.01084  eV     1   --> A'             
     e(  4 -  4) =     -7.89472  eV     1   --> A'             
     e(  5 -  5) =     -7.89435  eV     1   --> A'             
     e(  6 -  6) =     -7.88635  eV     1   --> A'             
     e(  7 -  7) =     -7.82399  eV     1   --> A'             
     e(  8 -  8) =     -7.81326  eV     1   --> A'             
     e(  9 -  9) =     -7.81287  eV     1   --> A'             
     e( 10 - 11) =     -7.80110  eV     2   -->   2 A''            
     e( 12 - 12) =     -7.80083  eV     1   --> A''            
     e( 13 - 15) =     -7.70340  eV     3   -->   3 A'             
     e( 16 - 18) =     -7.68196  eV     3   -->   3 A''            
     e( 19 - 21) =     -7.67823  eV     3   -->   3 A''            
     e( 22 - 22) =     -7.56602  eV     1   --> A'             
     e( 23 - 23) =     -7.56378  eV     1   --> A'             
     e( 24 - 24) =     -7.56356  eV     1   --> A'             
     e( 25 - 25) =     -7.52693  eV     1   --> A''            
     e( 26 - 27) =     -7.52681  eV     2   -->   2 A''            
     e( 28 - 29) =     -7.44434  eV     2   -->   2 A'             
     e( 30 - 30) =     -7.44413  eV     1   --> A'             
     e( 31 - 31) =     -6.49269  eV     1   --> A'             
     e( 32 - 32) =     -6.49208  eV     1   --> A'             
     e( 33 - 33) =     -6.38549  eV     1   --> A'             
     e( 34 - 34) =     -6.28102  eV     1   --> A'             
     e( 35 - 35) =     -6.16704  eV     1   --> A'             
     e( 36 - 36) =     -6.16642  eV     1   --> A'             
     e( 37 - 37) =      0.52662  eV     1   --> A'             
     e( 38 - 38) =      0.53573  eV     1   --> A'             
     e( 39 - 39) =      0.70558  eV     1   --> A'             
     e( 40 - 40) =      2.43841  eV     1   --> A'             
     e( 41 - 41) =      2.64969  eV     1   --> A'             
     e( 42 - 42) =      2.69325  eV     1   --> A'             
     e( 43 - 43) =      3.97518  eV     1   --> A'             
     e( 44 - 44) =      3.97648  eV     1   --> A'             
     e( 45 - 45) =      4.05584  eV     1   --> A'             
     e( 46 - 46) =      4.29578  eV     1   --> A'             
     e( 47 - 47) =      4.64877  eV     1   --> A'             
     e( 48 - 48) =      4.70623  eV     1   --> A'             
     e( 49 - 49) =      4.98664  eV     1   --> A''            
     e( 50 - 50) =      5.00515  eV     1   --> A''            
     e( 51 - 51) =      5.07963  eV     1   --> A''            
     e( 52 - 52) =      5.20616  eV     1   --> A''            
     e( 53 - 53) =      5.28823  eV     1   --> A''            
     e( 54 - 54) =      5.31091  eV     1   --> A''            
     e( 55 - 55) =      5.84078  eV     1   --> A'             
     e( 56 - 56) =      5.86313  eV     1   --> A'             
     e( 57 - 57) =      6.42752  eV     1   --> A'             
     e( 58 - 58) =      8.25267  eV     1   --> A'             
     e( 59 - 59) =      8.51720  eV     1   --> A'             
     e( 60 - 60) =      8.65630  eV     1   --> A'             
     e( 61 - 61) =      9.31132  eV     1   --> A'             
     e( 62 - 62) =      9.33894  eV     1   --> A'             
     e( 63 - 63) =      9.38786  eV     1   --> A'             
     e( 64 - 64) =     10.23980  eV     1   --> A'             
     e( 65 - 65) =     10.27643  eV     1   --> A'             
     e( 66 - 66) =     10.29693  eV     1   --> A'             
     e( 67 - 67) =     11.04052  eV     1   --> A''            
     e( 68 - 68) =     11.07758  eV     1   --> A'             
     e( 69 - 69) =     11.11635  eV     1   --> A''            
     e( 70 - 70) =     11.13183  eV     1   --> A''            
     e( 71 - 71) =     11.21863  eV     1   --> A'             
     e( 72 - 72) =     11.33556  eV     1   --> A'             
     e( 73 - 73) =     12.36765  eV     1   --> A'             
     e( 74 - 74) =     12.54466  eV     1   --> A'             
     e( 75 - 75) =     12.58586  eV     1   --> A''            
     e( 76 - 76) =     12.68812  eV     1   --> A''            
     e( 77 - 77) =     12.74900  eV     1   --> A''            
     e( 78 - 78) =     12.82077  eV     1   --> A'             
     e( 79 - 79) =     13.37808  eV     1   --> A'             
     e( 80 - 80) =     13.48234  eV     1   --> A'             
     e( 81 - 81) =     13.74226  eV     1   --> A'             
     e( 82 - 82) =     14.45087  eV     1   --> A'             
     e( 83 - 83) =     14.56801  eV     1   --> A'             
     e( 84 - 84) =     14.67419  eV     1   --> A'             
     e( 85 - 85) =     14.99218  eV     1   --> A'             
     e( 86 - 86) =     15.16678  eV     1   --> A''            
     e( 87 - 87) =     15.18249  eV     1   --> A''            
     e( 88 - 88) =     15.32112  eV     1   --> A'             
     e( 89 - 89) =     15.74433  eV     1   --> A'             
     e( 90 - 90) =     15.78329  eV     1   --> A''            
     e( 91 - 91) =     15.85919  eV     1   --> A''            
     e( 92 - 92) =     16.20065  eV     1   --> A'             
     e( 93 - 93) =     16.23650  eV     1   --> A'             
     e( 94 - 94) =     16.23915  eV     1   --> A'             
     e( 95 - 95) =     16.92021  eV     1   --> A'             
     e( 96 - 96) =     17.01250  eV     1   --> A''            
     e( 97 - 97) =     17.02222  eV     1   --> A''            
     e( 98 - 98) =     17.06007  eV     1   --> A'             
     e( 99 - 99) =     17.43289  eV     1   --> A'             
     e(100 -100) =     17.44970  eV     1   --> A'             
     e(101 -101) =     17.77767  eV     1   --> A'             
     e(102 -102) =     17.90368  eV     1   --> A'             
     e(103 -103) =     18.09893  eV     1   --> A'             
     e(104 -104) =     18.24021  eV     1   --> A''            
     e(105 -105) =     18.26754  eV     1   --> A''            
     e(106 -106) =     18.42217  eV     1   --> A'             
     e(107 -107) =     18.43517  eV     1   --> A'             
     e(108 -108) =     18.74724  eV     1   --> A'             
     e(109 -109) =     18.89168  eV     1   --> A'             
     e(110 -110) =     18.90176  eV     1   --> A''            
     e(111 -111) =     19.32592  eV     1   --> A'             
     e(112 -112) =     19.43170  eV     1   --> A'             
     e(113 -114) =     19.64172  eV     2   -->   2 A''            
     e(115 -115) =     19.93875  eV     1   --> A'             
     e(116 -116) =     20.00235  eV     1   --> A'             
     e(117 -117) =     20.44903  eV     1   --> A''            
     e(118 -118) =     20.59238  eV     1   --> A'             
     e(119 -119) =     20.95747  eV     1   --> A'             
     e(120 -120) =     21.06343  eV     1   --> A'             

 **************************************************************************

 **************************************************************************

                    xk=(  -0.00000,   0.21260,   0.07917  )

     Band symmetry, C_s (m)     point group:

     e(  1 -  1) =     -8.01489  eV     1   --> A'             
     e(  2 -  2) =     -8.01471  eV     1   --> A'             
     e(  3 -  3) =     -8.01302  eV     1   --> A'             
     e(  4 -  4) =     -7.90810  eV     1   --> A'             
     e(  5 -  5) =     -7.90767  eV     1   --> A'             
     e(  6 -  6) =     -7.89942  eV     1   --> A'             
     e(  7 -  7) =     -7.84332  eV     1   --> A'             
     e(  8 -  8) =     -7.83185  eV     1   --> A'             
     e(  9 -  9) =     -7.83135  eV     1   --> A'             
     e( 10 - 11) =     -7.80104  eV     2   -->   2 A''            
     e( 12 - 12) =     -7.80076  eV     1   --> A''            
     e( 13 - 15) =     -7.70506  eV     3   -->   3 A'             
     e( 16 - 18) =     -7.67818  eV     3   -->   3 A''            
     e( 19 - 21) =     -7.67460  eV     3   -->   3 A''            
     e( 22 - 22) =     -7.56808  eV     1   --> A'             
     e( 23 - 23) =     -7.56605  eV     1   --> A'             
     e( 24 - 24) =     -7.56580  eV     1   --> A'             
     e( 25 - 25) =     -7.52726  eV     1   --> A''            
     e( 26 - 27) =     -7.52712  eV     2   -->   2 A''            
     e( 28 - 29) =     -7.43673  eV     2   -->   2 A'             
     e( 30 - 30) =     -7.43646  eV     1   --> A'             
     e( 31 - 31) =     -6.43340  eV     1   --> A'             
     e( 32 - 32) =     -6.43254  eV     1   --> A'             
     e( 33 - 33) =     -6.32871  eV     1   --> A'             
     e( 34 - 34) =     -6.22592  eV     1   --> A'             
     e( 35 - 35) =     -6.11482  eV     1   --> A'             
     e( 36 - 36) =     -6.11395  eV     1   --> A'             
     e( 37 - 37) =      0.55307  eV     1   --> A'             
     e( 38 - 38) =      0.56612  eV     1   --> A'             
     e( 39 - 39) =      0.71001  eV     1   --> A'             
     e( 40 - 40) =      2.43650  eV     1   --> A'             
     e( 41 - 41) =      2.55134  eV     1   --> A'             
     e( 42 - 42) =      2.60915  eV     1   --> A'             
     e( 43 - 43) =      3.78676  eV     1   --> A'             
     e( 44 - 44) =      3.79491  eV     1   --> A'             
     e( 45 - 45) =      3.88377  eV     1   --> A'             
     e( 46 - 46) =      4.14778  eV     1   --> A'             
     e( 47 - 47) =      4.58325  eV     1   --> A'             
     e( 48 - 48) =      4.64239  eV     1   --> A'             
     e( 49 - 49) =      4.92417  eV     1   --> A''            
     e( 50 - 50) =      4.94087  eV     1   --> A''            
     e( 51 - 51) =      5.02214  eV     1   --> A''            
     e( 52 - 52) =      5.14821  eV     1   --> A''            
     e( 53 - 53) =      5.23829  eV     1   --> A''            
     e( 54 - 54) =      5.25894  eV     1   --> A''            
     e( 55 - 55) =      5.83365  eV     1   --> A'             
     e( 56 - 56) =      5.87212  eV     1   --> A'             
     e( 57 - 57) =      6.35838  eV     1   --> A'             
     e( 58 - 58) =      8.37238  eV     1   --> A'             
     e( 59 - 59) =      8.52291  eV     1   --> A'             
     e( 60 - 60) =      8.68953  eV     1   --> A'             
     e( 61 - 61) =      9.20703  eV     1   --> A'             
     e( 62 - 62) =      9.24439  eV     1   --> A'             
     e( 63 - 63) =      9.32974  eV     1   --> A'             
     e( 64 - 64) =     10.34206  eV     1   --> A'             
     e( 65 - 65) =     10.37851  eV     1   --> A'             
     e( 66 - 66) =     10.39221  eV     1   --> A'             
     e( 67 - 67) =     10.96624  eV     1   --> A'             
     e( 68 - 68) =     11.06430  eV     1   --> A''            
     e( 69 - 69) =     11.09290  eV     1   --> A'             
     e( 70 - 70) =     11.15161  eV     1   --> A''            
     e( 71 - 71) =     11.15495  eV     1   --> A''            
     e( 72 - 72) =     11.22030  eV     1   --> A'             
     e( 73 - 73) =     12.49294  eV     1   --> A'             
     e( 74 - 74) =     12.66233  eV     1   --> A'             
     e( 75 - 75) =     12.68883  eV     1   --> A''            
     e( 76 - 76) =     12.77556  eV     1   --> A''            
     e( 77 - 77) =     12.85097  eV     1   --> A''            
     e( 78 - 78) =     12.89175  eV     1   --> A'             
     e( 79 - 79) =     13.28452  eV     1   --> A'             
     e( 80 - 80) =     13.36584  eV     1   --> A'             
     e( 81 - 81) =     13.65941  eV     1   --> A'             
     e( 82 - 82) =     14.34072  eV     1   --> A'             
     e( 83 - 83) =     14.39914  eV     1   --> A'             
     e( 84 - 84) =     14.57512  eV     1   --> A'             
     e( 85 - 85) =     14.92849  eV     1   --> A'             
     e( 86 - 86) =     15.22182  eV     1   --> A''            
     e( 87 - 87) =     15.23860  eV     1   --> A''            
     e( 88 - 88) =     15.29735  eV     1   --> A'             
     e( 89 - 89) =     15.69605  eV     1   --> A'             
     e( 90 - 90) =     15.76756  eV     1   --> A''            
     e( 91 - 91) =     15.90760  eV     1   --> A''            
     e( 92 - 92) =     16.14335  eV     1   --> A'             
     e( 93 - 93) =     16.15780  eV     1   --> A'             
     e( 94 - 94) =     16.39657  eV     1   --> A'             
     e( 95 - 95) =     17.00256  eV     1   --> A''            
     e( 96 - 96) =     17.00762  eV     1   --> A''            
     e( 97 - 97) =     17.10308  eV     1   --> A'             
     e( 98 - 98) =     17.14416  eV     1   --> A'             
     e( 99 - 99) =     17.51041  eV     1   --> A'             
     e(100 -100) =     17.53047  eV     1   --> A'             
     e(101 -101) =     17.87143  eV     1   --> A'             
     e(102 -102) =     17.97735  eV     1   --> A'             
     e(103 -103) =     18.35146  eV     1   --> A'             
     e(104 -104) =     18.45792  eV     1   --> A''            
     e(105 -105) =     18.46844  eV     1   --> A''            
     e(106 -106) =     18.59611  eV     1   --> A'             
     e(107 -107) =     18.65761  eV     1   --> A'             
     e(108 -108) =     19.03840  eV     1   --> A'             
     e(109 -110) =     19.13090  eV     2   --> A'             
     e(109 -110) =     19.13090  eV     2   --> A''            
     e(111 -111) =     19.51288  eV     1   --> A'             
     e(112 -112) =     19.58420  eV     1   --> A'             
     e(113 -113) =     19.60101  eV     1   --> A''            
     e(114 -114) =     19.63024  eV     1   --> A''            
     e(115 -115) =     20.02378  eV     1   --> A'             
     e(116 -116) =     20.03307  eV     1   --> A'             
     e(117 -117) =     20.62193  eV     1   --> A''            
     e(118 -118) =     20.82345  eV     1   --> A'             
     e(119 -119) =     21.13170  eV     1   --> A'             
     e(120 -120) =     21.15587  eV     1   --> A'             

 **************************************************************************

 **************************************************************************

                    xk=(  -0.00000,   0.23386,   0.07917  )

     Band symmetry, C_s (m)     point group:

     e(  1 -  1) =     -8.01913  eV     1   --> A'             
     e(  2 -  2) =     -8.01885  eV     1   --> A'             
     e(  3 -  3) =     -8.01638  eV     1   --> A'             
     e(  4 -  4) =     -7.91991  eV     1   --> A'             
     e(  5 -  5) =     -7.91945  eV     1   --> A'             
     e(  6 -  6) =     -7.91138  eV     1   --> A'             
     e(  7 -  7) =     -7.86225  eV     1   --> A'             
     e(  8 -  8) =     -7.85029  eV     1   --> A'             
     e(  9 -  9) =     -7.84965  eV     1   --> A'             
     e( 10 - 11) =     -7.80105  eV     2   -->   2 A''            
     e( 12 - 12) =     -7.80076  eV     1   --> A''            
     e( 13 - 15) =     -7.70677  eV     3   -->   3 A'             
     e( 16 - 18) =     -7.67422  eV     3   -->   3 A''            
     e( 19 - 21) =     -7.67071  eV     3   -->   3 A''            
     e( 22 - 22) =     -7.57004  eV     1   --> A'             
     e( 23 - 23) =     -7.56819  eV     1   --> A'             
     e( 24 - 24) =     -7.56791  eV     1   --> A'             
     e( 25 - 25) =     -7.52758  eV     1   --> A''            
     e( 26 - 27) =     -7.52743  eV     2   -->   2 A''            
[...]
     e( 55 - 57) =      4.92118  eV     3   --> E              
     e( 55 - 57) =      4.92118  eV     3   --> E*             
     e( 58 - 60) =      8.33554  eV     3   --> A              
     e( 58 - 60) =      8.33554  eV     3   --> E              
     e( 58 - 60) =      8.33554  eV     3   --> E*             
     e( 61 - 62) =      9.01875  eV     2   -->   ?
     e( 63 - 63) =      9.01892  eV     1   -->   ?
     e( 64 - 66) =      9.88516  eV     3   --> A              
     e( 64 - 66) =      9.88516  eV     3   --> E              
     e( 64 - 66) =      9.88516  eV     3   --> E*             
     e( 67 - 69) =     10.95634  eV     3   --> A              
     e( 67 - 69) =     10.95634  eV     3   --> E              
     e( 67 - 69) =     10.95634  eV     3   --> E*             
     e( 70 - 72) =     12.27357  eV     3   --> A              
     e( 70 - 72) =     12.27357  eV     3   --> E              
     e( 70 - 72) =     12.27357  eV     3   --> E*             
     e( 73 - 75) =     13.13710  eV     3   --> A              
     e( 73 - 75) =     13.13710  eV     3   --> E              
     e( 73 - 75) =     13.13710  eV     3   --> E*             
     e( 76 - 78) =     13.38054  eV     3   --> A              
     e( 76 - 78) =     13.38054  eV     3   --> E              
     e( 76 - 78) =     13.38054  eV     3   --> E*             
     e( 79 - 81) =     14.28829  eV     3   --> A              
     e( 79 - 81) =     14.28829  eV     3   --> E              
     e( 79 - 81) =     14.28829  eV     3   --> E*             
     e( 82 - 84) =     14.71205  eV     3   --> A              
     e( 82 - 84) =     14.71205  eV     3   --> E              
     e( 82 - 84) =     14.71205  eV     3   --> E*             
     e( 85 - 87) =     15.30647  eV     3   --> A              
     e( 85 - 87) =     15.30647  eV     3   --> E              
     e( 85 - 87) =     15.30647  eV     3   --> E*             
     e( 88 - 90) =     15.72540  eV     3   --> A              
     e( 88 - 90) =     15.72540  eV     3   --> E              
     e( 88 - 90) =     15.72540  eV     3   --> E*             
     e( 91 - 93) =     16.17679  eV     3   --> A              
     e( 91 - 93) =     16.17679  eV     3   --> E              
     e( 91 - 93) =     16.17679  eV     3   --> E*             
     e( 94 - 96) =     17.34912  eV     3   --> A              
     e( 94 - 96) =     17.34912  eV     3   --> E              
     e( 94 - 96) =     17.34912  eV     3   --> E*             
     e( 97 - 99) =     17.92469  eV     3   --> A              
     e( 97 - 99) =     17.92469  eV     3   --> E              
     e( 97 - 99) =     17.92469  eV     3   --> E*             
     e(100 -102) =     19.03499  eV     3   --> A              
     e(100 -102) =     19.03499  eV     3   --> E              
     e(100 -102) =     19.03499  eV     3   --> E*             
     e(103 -105) =     19.52274  eV     3   --> A              
     e(103 -105) =     19.52274  eV     3   --> E              
     e(103 -105) =     19.52274  eV     3   --> E*             
     e(106 -108) =     20.58462  eV     3   --> A              
     e(106 -108) =     20.58462  eV     3   --> E              
     e(106 -108) =     20.58462  eV     3   --> E*             
     e(109 -111) =     21.06277  eV     3   --> A              
     e(109 -111) =     21.06277  eV     3   --> E              
     e(109 -111) =     21.06277  eV     3   --> E*             
     e(112 -114) =     21.78084  eV     3   --> A              
     e(112 -114) =     21.78084  eV     3   --> E              
     e(112 -114) =     21.78084  eV     3   --> E*             
     e(115 -117) =     22.22516  eV     3   --> A              
     e(115 -117) =     22.22516  eV     3   --> E              
     e(115 -117) =     22.22516  eV     3   --> E*             
     e(118 -120) =     22.62050  eV     3   --> A              
     e(118 -120) =     22.62050  eV     3   --> E              
     e(118 -120) =     22.62050  eV     3   --> E*             

 **************************************************************************

 **************************************************************************

                    xk=(   0.33141,   0.57402,   0.01979  )

     Band symmetry, C_3 (3)     point group:

     e(  1 -  3) =     -8.12954  eV     3   --> A              
     e(  1 -  3) =     -8.12954  eV     3   --> E              
     e(  1 -  3) =     -8.12954  eV     3   --> E*             
     e(  4 -  6) =     -8.03009  eV     3   --> A              
     e(  4 -  6) =     -8.03009  eV     3   --> E              
     e(  4 -  6) =     -8.03009  eV     3   --> E*             
     e(  7 -  9) =     -7.94658  eV     3   --> A              
     e(  7 -  9) =     -7.94658  eV     3   --> E              
     e(  7 -  9) =     -7.94658  eV     3   --> E*             
     e( 10 - 12) =     -7.82790  eV     3   --> A              
     e( 10 - 12) =     -7.82790  eV     3   --> E              
     e( 10 - 12) =     -7.82790  eV     3   --> E*             
     e( 13 - 15) =     -7.69643  eV     3   --> A              
     e( 13 - 15) =     -7.69643  eV     3   --> E              
     e( 13 - 15) =     -7.69643  eV     3   --> E*             
     e( 16 - 18) =     -7.65026  eV     3   --> A              
     e( 16 - 18) =     -7.65026  eV     3   --> E              
     e( 16 - 18) =     -7.65026  eV     3   --> E*             
     e( 19 - 21) =     -7.64096  eV     3   --> A              
     e( 19 - 21) =     -7.64096  eV     3   --> E              
     e( 19 - 21) =     -7.64096  eV     3   --> E*             
     e( 22 - 24) =     -7.56101  eV     3   --> A              
     e( 22 - 24) =     -7.56101  eV     3   --> E              
     e( 22 - 24) =     -7.56101  eV     3   --> E*             
     e( 25 - 27) =     -7.55043  eV     3   --> A              
     e( 25 - 27) =     -7.55043  eV     3   --> E              
     e( 25 - 27) =     -7.55043  eV     3   --> E*             
     e( 28 - 30) =     -7.36447  eV     3   --> A              
     e( 28 - 30) =     -7.36447  eV     3   --> E              
     e( 28 - 30) =     -7.36447  eV     3   --> E*             
     e( 31 - 33) =     -5.33602  eV     3   --> A              
     e( 31 - 33) =     -5.33602  eV     3   --> E              
     e( 31 - 33) =     -5.33602  eV     3   --> E*             
     e( 34 - 36) =     -5.26610  eV     3   --> A              
     e( 34 - 36) =     -5.26610  eV     3   --> E              
     e( 34 - 36) =     -5.26610  eV     3   --> E*             
     e( 37 - 37) =      0.41792  eV     1   --> E*             
     e( 38 - 39) =      0.41805  eV     2   --> A              
     e( 38 - 39) =      0.41805  eV     2   --> E              
     e( 40 - 42) =      1.18212  eV     3   --> A              
     e( 40 - 42) =      1.18212  eV     3   --> E              
     e( 40 - 42) =      1.18212  eV     3   --> E*             
     e( 43 - 45) =      2.69204  eV     3   --> A              
     e( 43 - 45) =      2.69204  eV     3   --> E              
     e( 43 - 45) =      2.69204  eV     3   --> E*             
     e( 46 - 48) =      3.00822  eV     3   --> A              
     e( 46 - 48) =      3.00822  eV     3   --> E              
     e( 46 - 48) =      3.00822  eV     3   --> E*             
     e( 49 - 51) =      4.05417  eV     3   --> A              
     e( 49 - 51) =      4.05417  eV     3   --> E              
     e( 49 - 51) =      4.05417  eV     3   --> E*             
     e( 52 - 54) =      4.49016  eV     3   --> A              
     e( 52 - 54) =      4.49016  eV     3   --> E              
     e( 52 - 54) =      4.49016  eV     3   --> E*             
     e( 55 - 57) =      4.91892  eV     3   --> A              
     e( 55 - 57) =      4.91892  eV     3   --> E              
     e( 55 - 57) =      4.91892  eV     3   --> E*             
     e( 58 - 60) =      8.34283  eV     3   --> A              
     e( 58 - 60) =      8.34283  eV     3   --> E              
     e( 58 - 60) =      8.34283  eV     3   --> E*             
     e( 61 - 62) =      8.99927  eV     2   -->   ?
     e( 63 - 63) =      8.99944  eV     1   -->   ?
     e( 64 - 66) =      9.90913  eV     3   --> A              
     e( 64 - 66) =      9.90913  eV     3   --> E              
     e( 64 - 66) =      9.90913  eV     3   --> E*             
     e( 67 - 69) =     10.93968  eV     3   --> A              
     e( 67 - 69) =     10.93968  eV     3   --> E              
     e( 67 - 69) =     10.93968  eV     3   --> E*             
     e( 70 - 72) =     12.27595  eV     3   --> A              
     e( 70 - 72) =     12.27595  eV     3   --> E              
     e( 70 - 72) =     12.27595  eV     3   --> E*             
     e( 73 - 75) =     13.12372  eV     3   --> A              
     e( 73 - 75) =     13.12372  eV     3   --> E              
     e( 73 - 75) =     13.12372  eV     3   --> E*             
     e( 76 - 78) =     13.41314  eV     3   --> A              
     e( 76 - 78) =     13.41314  eV     3   --> E              
     e( 76 - 78) =     13.41314  eV     3   --> E*             
     e( 79 - 81) =     14.26729  eV     3   --> A              
     e( 79 - 81) =     14.26729  eV     3   --> E              
     e( 79 - 81) =     14.26729  eV     3   --> E*             
     e( 82 - 84) =     14.72589  eV     3   --> A              
     e( 82 - 84) =     14.72589  eV     3   --> E              
     e( 82 - 84) =     14.72589  eV     3   --> E*             
     e( 85 - 87) =     15.27190  eV     3   --> A              
     e( 85 - 87) =     15.27190  eV     3   --> E              
     e( 85 - 87) =     15.27190  eV     3   --> E*             
     e( 88 - 90) =     15.72982  eV     3   --> A              
     e( 88 - 90) =     15.72982  eV     3   --> E              
     e( 88 - 90) =     15.72982  eV     3   --> E*             
     e( 91 - 93) =     16.19659  eV     3   --> A              
     e( 91 - 93) =     16.19659  eV     3   --> E              
     e( 91 - 93) =     16.19659  eV     3   --> E*             
     e( 94 - 96) =     17.44084  eV     3   --> A              
     e( 94 - 96) =     17.44084  eV     3   --> E              
     e( 94 - 96) =     17.44084  eV     3   --> E*             
     e( 97 - 99) =     17.80537  eV     3   --> A              
     e( 97 - 99) =     17.80537  eV     3   --> E              
     e( 97 - 99) =     17.80537  eV     3   --> E*             
     e(100 -102) =     19.01773  eV     3   --> A              
     e(100 -102) =     19.01773  eV     3   --> E              
     e(100 -102) =     19.01773  eV     3   --> E*             
     e(103 -105) =     19.59786  eV     3   --> A              
     e(103 -105) =     19.59786  eV     3   --> E              
     e(103 -105) =     19.59786  eV     3   --> E*             
     e(106 -108) =     20.63637  eV     3   --> A              
     e(106 -108) =     20.63637  eV     3   --> E              
     e(106 -108) =     20.63637  eV     3   --> E*             
     e(109 -111) =     20.94647  eV     3   --> A              
     e(109 -111) =     20.94647  eV     3   --> E              
     e(109 -111) =     20.94647  eV     3   --> E*             
     e(112 -113) =     21.70929  eV     2   -->   ?
     e(114 -114) =     21.70947  eV     1   -->   ?
     e(115 -117) =     22.36560  eV     3   --> A              
     e(115 -117) =     22.36560  eV     3   --> E              
     e(115 -117) =     22.36560  eV     3   --> E*             
     e(118 -120) =     22.64574  eV     3   --> A              
     e(118 -120) =     22.64574  eV     3   --> E              
     e(118 -120) =     22.64574  eV     3   --> E*             

 **************************************************************************

 **************************************************************************

                    xk=(   0.33141,   0.57402,  -0.00000  )

     Band symmetry, C_3 (3)     point group:

     e(  1 -  3) =     -8.12954  eV     3   --> A              
     e(  1 -  3) =     -8.12954  eV     3   --> E              
     e(  1 -  3) =     -8.12954  eV     3   --> E*             
     e(  4 -  6) =     -8.03009  eV     3   --> A              
     e(  4 -  6) =     -8.03009  eV     3   --> E              
     e(  4 -  6) =     -8.03009  eV     3   --> E*             
     e(  7 -  9) =     -7.94658  eV     3   --> A              
     e(  7 -  9) =     -7.94658  eV     3   --> E              
     e(  7 -  9) =     -7.94658  eV     3   --> E*             
     e( 10 - 12) =     -7.82790  eV     3   --> A              
     e( 10 - 12) =     -7.82790  eV     3   --> E              
     e( 10 - 12) =     -7.82790  eV     3   --> E*             
     e( 13 - 15) =     -7.69643  eV     3   --> A              
     e( 13 - 15) =     -7.69643  eV     3   --> E              
     e( 13 - 15) =     -7.69643  eV     3   --> E*             
     e( 16 - 18) =     -7.65026  eV     3   --> A              
     e( 16 - 18) =     -7.65026  eV     3   --> E              
     e( 16 - 18) =     -7.65026  eV     3   --> E*             
     e( 19 - 21) =     -7.64096  eV     3   --> A              
     e( 19 - 21) =     -7.64096  eV     3   --> E              
     e( 19 - 21) =     -7.64096  eV     3   --> E*             
     e( 22 - 24) =     -7.56101  eV     3   --> A              
     e( 22 - 24) =     -7.56101  eV     3   --> E              
     e( 22 - 24) =     -7.56101  eV     3   --> E*             
     e( 25 - 27) =     -7.55043  eV     3   --> A              
     e( 25 - 27) =     -7.55043  eV     3   --> E              
     e( 25 - 27) =     -7.55043  eV     3   --> E*             
     e( 28 - 30) =     -7.36447  eV     3   --> A              
     e( 28 - 30) =     -7.36447  eV     3   --> E              
     e( 28 - 30) =     -7.36447  eV     3   --> E*             
     e( 31 - 33) =     -5.33602  eV     3   --> A              
     e( 31 - 33) =     -5.33602  eV     3   --> E              
     e( 31 - 33) =     -5.33602  eV     3   --> E*             
     e( 34 - 36) =     -5.26610  eV     3   --> A              
     e( 34 - 36) =     -5.26610  eV     3   --> E              
     e( 34 - 36) =     -5.26610  eV     3   --> E*             
     e( 37 - 37) =      0.41792  eV     1   --> E*             
     e( 38 - 39) =      0.41805  eV     2   --> A              
     e( 38 - 39) =      0.41805  eV     2   --> E              
     e( 40 - 42) =      1.18212  eV     3   --> A              
     e( 40 - 42) =      1.18212  eV     3   --> E              
     e( 40 - 42) =      1.18212  eV     3   --> E*             
     e( 43 - 45) =      2.69195  eV     3   --> A              
     e( 43 - 45) =      2.69195  eV     3   --> E              
     e( 43 - 45) =      2.69195  eV     3   --> E*             
     e( 46 - 48) =      3.00842  eV     3   --> A              
     e( 46 - 48) =      3.00842  eV     3   --> E              
     e( 46 - 48) =      3.00842  eV     3   --> E*             
     e( 49 - 51) =      4.05330  eV     3   --> A              
     e( 49 - 51) =      4.05330  eV     3   --> E              
     e( 49 - 51) =      4.05330  eV     3   --> E*             
     e( 52 - 54) =      4.49178  eV     3   --> A              
     e( 52 - 54) =      4.49178  eV     3   --> E              
     e( 52 - 54) =      4.49178  eV     3   --> E*             
     e( 55 - 57) =      4.91798  eV     3   --> A              
     e( 55 - 57) =      4.91798  eV     3   --> E              
     e( 55 - 57) =      4.91798  eV     3   --> E*             
     e( 58 - 60) =      8.34593  eV     3   --> A              
     e( 58 - 60) =      8.34593  eV     3   --> E              
     e( 58 - 60) =      8.34593  eV     3   --> E*             
     e( 61 - 62) =      8.99130  eV     2   -->   ?
     e( 63 - 63) =      8.99147  eV     1   -->   ?
     e( 64 - 66) =      9.91901  eV     3   --> A              
     e( 64 - 66) =      9.91901  eV     3   --> E              
     e( 64 - 66) =      9.91901  eV     3   --> E*             
     e( 67 - 69) =     10.93266  eV     3   --> A              
     e( 67 - 69) =     10.93266  eV     3   --> E              
     e( 67 - 69) =     10.93266  eV     3   --> E*             
     e( 70 - 72) =     12.27693  eV     3   --> A              
     e( 70 - 72) =     12.27693  eV     3   --> E              
     e( 70 - 72) =     12.27693  eV     3   --> E*             
     e( 73 - 75) =     13.11891  eV     3   --> A              
     e( 73 - 75) =     13.11891  eV     3   --> E              
     e( 73 - 75) =     13.11891  eV     3   --> E*             
     e( 76 - 78) =     13.42619  eV     3   --> A              
     e( 76 - 78) =     13.42619  eV     3   --> E              
     e( 76 - 78) =     13.42619  eV     3   --> E*             
     e( 79 - 81) =     14.25843  eV     3   --> A              
     e( 79 - 81) =     14.25843  eV     3   --> E              
     e( 79 - 81) =     14.25843  eV     3   --> E*             
     e( 82 - 84) =     14.73170  eV     3   --> A              
     e( 82 - 84) =     14.73170  eV     3   --> E              
     e( 82 - 84) =     14.73170  eV     3   --> E*             
     e( 85 - 87) =     15.25799  eV     3   --> A              
     e( 85 - 87) =     15.25799  eV     3   --> E              
     e( 85 - 87) =     15.25799  eV     3   --> E*             
     e( 88 - 90) =     15.73137  eV     3   --> A              
     e( 88 - 90) =     15.73137  eV     3   --> E              
     e( 88 - 90) =     15.73137  eV     3   --> E*             
     e( 91 - 93) =     16.20436  eV     3   --> A              
     e( 91 - 93) =     16.20436  eV     3   --> E              
     e( 91 - 93) =     16.20436  eV     3   --> E*             
     e( 94 - 96) =     17.50298  eV     3   --> A              
     e( 94 - 96) =     17.50298  eV     3   --> E              
     e( 94 - 96) =     17.50298  eV     3   --> E*             
     e( 97 - 99) =     17.73241  eV     3   --> A              
     e( 97 - 99) =     17.73241  eV     3   --> E              
     e( 97 - 99) =     17.73241  eV     3   --> E*             
     e(100 -102) =     19.01196  eV     3   --> A              
     e(100 -102) =     19.01196  eV     3   --> E              
     e(100 -102) =     19.01196  eV     3   --> E*             
     e(103 -105) =     19.62774  eV     3   --> A              
     e(103 -105) =     19.62774  eV     3   --> E              
     e(103 -105) =     19.62774  eV     3   --> E*             
     e(106 -108) =     20.67107  eV     3   --> A              
     e(106 -108) =     20.67107  eV     3   --> E              
     e(106 -108) =     20.67107  eV     3   --> E*             
     e(109 -111) =     20.88663  eV     3   --> A              
     e(109 -111) =     20.88663  eV     3   --> E              
     e(109 -111) =     20.88663  eV     3   --> E*             
     e(112 -113) =     21.68223  eV     2   -->   ?
     e(114 -114) =     21.68241  eV     1   -->   ?
     e(115 -117) =     22.45362  eV     3   --> A              
     e(115 -117) =     22.45362  eV     3   --> E              
     e(115 -117) =     22.45362  eV     3   --> E*             
     e(118 -120) =     22.60821  eV     3   --> A              
     e(118 -120) =     22.60821  eV     3   --> E              
     e(118 -120) =     22.60821  eV     3   --> E*             

 **************************************************************************
 
     BANDS        :  4m26.70s CPU     4m45.48s WALL

 
   This run was terminated on:   4:24:41  23Sep2021            

=------------------------------------------------------------------------------=
   JOB DONE.
=------------------------------------------------------------------------------=
