
     Program BANDS v.6.1 (svn rev. 13369) starts on  4Oct2021 at 11: 1:12 

     This program is part of the open-source Quantum ESPRESSO suite
     for quantum simulation of materials; please cite
         "P. Giannozzi et al., J. Phys.:Condens. Matter 21 395502 (2009);
          URL http://www.quantum-espresso.org", 
     in publications or presentations arising from this work. More details at
     http://www.quantum-espresso.org/quote

     Parallel version (MPI), running on    48 processors
     R & G space division:  proc/nbgrp/npool/nimage =      48

     Reading data from directory:
     /share/inl/marcel/TB/InTegammap_outdir/InTegammap.save

   Info: using nr1, nr2, nr3 values from input

   Info: using nr1, nr2, nr3 values from input

     IMPORTANT: XC functional enforced from input :
     Exchange-correlation      = SLA+PW+PSX+PSC ( 1  4 10  8 0 0)
     Any further DFT definition will be discarded
     Please, verify this is what you really want

 
     Parallelization info
     --------------------
     sticks:   dense  smooth     PW     G-vecs:    dense   smooth      PW
     Min          57      57     15                14810    14810    2085
     Max          59      59     16                14835    14835    2124
     Sum        2749    2749    745               711545   711545  100907
 
     high-symmetry point:  0.0000 0.0000 0.0759   x coordinate   0.0000
     high-symmetry point:  0.0000 0.5353 0.0759   x coordinate   0.5353
     high-symmetry point:  0.3091 0.5353 0.0759   x coordinate   0.8444
     high-symmetry point:  0.0000 0.0000 0.0759   x coordinate   1.4625
     high-symmetry point:  0.0000 0.0000 0.0000   x coordinate   1.5384
     high-symmetry point:  0.0000 0.5353-0.0000   x coordinate   2.0737
     high-symmetry point:  0.3091 0.5353-0.0000   x coordinate   2.3827
     high-symmetry point:  0.0000 0.0000 0.0000   x coordinate   3.0009
     high-symmetry point:  0.0000 0.5353 0.0759   x coordinate   3.0009
     high-symmetry point:  0.0000 0.5353-0.0000   x coordinate   3.0767
     high-symmetry point:  0.3091 0.5353 0.0759   x coordinate   3.0767
     high-symmetry point:  0.3091 0.5353-0.0000   x coordinate   3.1526

     Plottable bands (eV) written to file InTegammap.bands.dat.gnu
     Bands written to file InTegammap.bands.dat

 **************************************************************************

                    xk=(   0.00000,   0.00000,   0.07585  )

     point group C_3v (3m)  
     there are  3 classes
     the character table:

       E     2C3   3s_v 
A_1    1.00  1.00  1.00
A_2    1.00  1.00 -1.00
E      2.00 -1.00  0.00

     the symmetry operations in each class and the name of the first element:

     E        1
                                                                 
     2C3      2    3
                                                                 
     3s_v     4    5    6
                                                                 

     Band symmetry, C_3v (3m)   point group:

     e(  1 -  6) =    -28.48724  eV     6   -->   3 E    L_3       
     e(  7 - 12) =    -28.48692  eV     6   -->   3 E    L_3       
     e( 13 - 18) =    -28.43346  eV     6   -->   3 E    L_3       
     e( 19 - 24) =    -28.43225  eV     6   -->   3 E    L_3       
     e( 25 - 27) =    -28.41360  eV     3   -->   3 A_1  L_1       
     e( 28 - 30) =    -28.41330  eV     3   -->   3 A_1  L_1       
     e( 31 - 33) =     -6.81254  eV     3   -->   3 A_1  L_1       
     e( 34 - 35) =     -6.61418  eV     2   --> E    L_3       
     e( 36 - 39) =     -6.61403  eV     4   -->   2 E    L_3       
     e( 40 - 45) =     -6.52741  eV     6   -->   3 E    L_3       
     e( 46 - 51) =     -6.47592  eV     6   -->   3 E    L_3       
     e( 52 - 57) =     -6.35419  eV     6   -->   3 E    L_3       
     e( 58 - 59) =     -6.25319  eV     2   -->   2 A_1  L_1       
     e( 60 - 60) =     -6.25288  eV     1   --> A_1  L_1       
     e( 61 - 62) =     -3.96214  eV     2   -->   2 A_1  L_1       
     e( 63 - 63) =     -3.86719  eV     1   --> A_1  L_1       
     e( 64 - 64) =     -3.68676  eV     1   --> A_1  L_1       
     e( 65 - 66) =     -3.56960  eV     2   -->   2 A_1  L_1       
     e( 67 - 68) =      1.97803  eV     2   -->   2 A_1  L_1       
     e( 69 - 69) =      2.33636  eV     1   --> A_1  L_1       
     e( 70 - 70) =      3.78675  eV     1   --> A_1  L_1       
     e( 71 - 72) =      4.55440  eV     2   -->   2 A_1  L_1       
     e( 73 - 74) =      6.79575  eV     2   --> E    L_3       
     e( 75 - 78) =      6.85689  eV     4   -->   2 E    L_3       
     e( 79 - 80) =      6.87991  eV     2   -->   2 A_1  L_1       
     e( 81 - 84) =      7.05917  eV     4   -->   2 E    L_3       
     e( 85 - 86) =      7.12723  eV     2   --> E    L_3       
     e( 87 - 87) =      8.18383  eV     1   --> A_1  L_1       
     e( 88 - 88) =      8.36837  eV     1   --> A_1  L_1       
     e( 89 - 89) =      9.36915  eV     1   --> A_1  L_1       
     e( 90 - 90) =      9.36928  eV     1   --> A_1  L_1       
     e( 91 - 91) =      9.68569  eV     1   --> A_1  L_1       
     e( 92 - 93) =      9.71746  eV     2   -->   2 A_1  L_1       
     e( 94 - 97) =     11.09645  eV     4   -->   2 E    L_3       
     e( 98 - 99) =     11.19003  eV     2   --> E    L_3       
     e(100 -101) =     12.16687  eV     2   --> E    L_3       
     e(102 -105) =     12.35368  eV     4   -->   2 E    L_3       
     e(106 -106) =     12.81421  eV     1   --> A_1  L_1       
     e(107 -107) =     12.81451  eV     1   --> A_1  L_1       
     e(108 -108) =     13.29926  eV     1   --> A_1  L_1       
     e(109 -110) =     14.10127  eV     2   -->   2 A_1  L_1       
     e(111 -111) =     14.58867  eV     1   --> A_1  L_1       
     e(112 -112) =     14.92698  eV     1   --> A_1  L_1       
     e(113 -114) =     15.31658  eV     2   -->   2 A_1  L_1       
     e(115 -116) =     15.41832  eV     2   --> E    L_3       
     e(117 -118) =     15.41843  eV     2   --> E    L_3       
     e(119 -120) =     15.55276  eV     2   --> E    L_3       

 **************************************************************************

 **************************************************************************

                    xk=(   0.00000,   0.01983,   0.07585  )

     point group C_s (m)    
     there are  2 classes
     the character table:

       E     s    
A'     1.00  1.00
A''    1.00 -1.00

     the symmetry operations in each class and the name of the first element:

     E        1
                                                                 
     s        2
                                                                 

     Band symmetry, C_s (m)     point group:

     e(  1 -  6) =    -28.48724  eV     6   -->   3 A'             
     e(  1 -  6) =    -28.48724  eV     6   -->   3 A''            
     e(  7 - 12) =    -28.48692  eV     6   -->   3 A'             
     e(  7 - 12) =    -28.48692  eV     6   -->   3 A''            
     e( 13 - 18) =    -28.43346  eV     6   -->   3 A'             
     e( 13 - 18) =    -28.43346  eV     6   -->   3 A''            
     e( 19 - 24) =    -28.43225  eV     6   -->   3 A'             
     e( 19 - 24) =    -28.43225  eV     6   -->   3 A''            
     e( 25 - 27) =    -28.41359  eV     3   -->   3 A'             
     e( 28 - 30) =    -28.41330  eV     3   -->   3 A'             
     e( 31 - 33) =     -6.81248  eV     3   -->   3 A'             
     e( 34 - 34) =     -6.61453  eV     1   --> A'             
     e( 35 - 36) =     -6.61440  eV     2   -->   2 A'             
     e( 37 - 37) =     -6.61420  eV     1   --> A''            
     e( 38 - 39) =     -6.61405  eV     2   -->   2 A''            
     e( 40 - 42) =     -6.52771  eV     3   -->   3 A'             
     e( 43 - 45) =     -6.52725  eV     3   -->   3 A''            
     e( 46 - 48) =     -6.47602  eV     3   -->   3 A'             
     e( 49 - 51) =     -6.47579  eV     3   -->   3 A''            
     e( 52 - 54) =     -6.35446  eV     3   -->   3 A'             
     e( 55 - 57) =     -6.35422  eV     3   -->   3 A''            
     e( 58 - 59) =     -6.25295  eV     2   -->   2 A'             
     e( 60 - 60) =     -6.25263  eV     1   --> A'             
     e( 61 - 62) =     -3.95924  eV     2   -->   2 A'             
     e( 63 - 63) =     -3.86434  eV     1   --> A'             
     e( 64 - 64) =     -3.68399  eV     1   --> A'             
     e( 65 - 66) =     -3.56692  eV     2   -->   2 A'             
     e( 67 - 68) =      1.97971  eV     2   -->   2 A'             
     e( 69 - 69) =      2.33660  eV     1   --> A'             
     e( 70 - 70) =      3.78866  eV     1   --> A'             
     e( 71 - 72) =      4.55107  eV     2   -->   2 A'             
     e( 73 - 73) =      6.77292  eV     1   --> A'             
     e( 74 - 74) =      6.79007  eV     1   --> A''            
     e( 75 - 75) =      6.80458  eV     1   --> A'             
     e( 76 - 76) =      6.81026  eV     1   --> A'             
     e( 77 - 77) =      6.84674  eV     1   --> A''            
     e( 78 - 78) =      6.85515  eV     1   --> A'             
     e( 79 - 79) =      6.85541  eV     1   --> A'             
     e( 80 - 80) =      6.85643  eV     1   --> A''            
     e( 81 - 81) =      7.04941  eV     1   --> A''            
     e( 82 - 82) =      7.06003  eV     1   --> A''            
     e( 83 - 83) =      7.08112  eV     1   --> A'             
     e( 84 - 84) =      7.09154  eV     1   --> A'             
     e( 85 - 85) =      7.09766  eV     1   --> A'             
     e( 86 - 86) =      7.12329  eV     1   --> A''            
     e( 87 - 87) =      8.18179  eV     1   --> A'             
     e( 88 - 88) =      8.41091  eV     1   --> A'             
     e( 89 - 89) =      9.38328  eV     1   --> A'             
     e( 90 - 90) =      9.38358  eV     1   --> A'             
     e( 91 - 91) =      9.70510  eV     1   --> A'             
     e( 92 - 92) =      9.73901  eV     1   --> A'             
     e( 93 - 93) =      9.73922  eV     1   --> A'             
     e( 94 - 94) =     11.07608  eV     1   --> A'             
     e( 95 - 95) =     11.08668  eV     1   --> A'             
     e( 96 - 96) =     11.09716  eV     1   --> A''            
     e( 97 - 97) =     11.10809  eV     1   --> A''            
     e( 98 - 98) =     11.17987  eV     1   --> A'             
     e( 99 - 99) =     11.19437  eV     1   --> A''            
     e(100 -100) =     12.15235  eV     1   --> A'             
     e(101 -101) =     12.17623  eV     1   --> A''            
     e(102 -102) =     12.33021  eV     1   --> A'             
     e(103 -104) =     12.35124  eV     2   --> A'             
     e(103 -104) =     12.35124  eV     2   --> A''            
     e(105 -105) =     12.37226  eV     1   --> A''            
     e(106 -106) =     12.81315  eV     1   --> A'             
     e(107 -107) =     12.81387  eV     1   --> A'             
     e(108 -108) =     13.30443  eV     1   --> A'             
     e(109 -109) =     14.12350  eV     1   --> A'             
     e(110 -110) =     14.12452  eV     1   --> A'             
     e(111 -111) =     14.60980  eV     1   --> A'             
     e(112 -112) =     14.95465  eV     1   --> A'             
     e(113 -113) =     15.29887  eV     1   --> A'             
     e(114 -114) =     15.31480  eV     1   --> A'             
     e(115 -115) =     15.35018  eV     1   --> A''            
     e(116 -116) =     15.37202  eV     1   --> A'             
     e(117 -117) =     15.47796  eV     1   --> A''            
     e(118 -118) =     15.48743  eV     1   --> A'             
     e(119 -119) =     15.50323  eV     1   --> A'             
     e(120 -120) =     15.53829  eV     1   --> A''            

 **************************************************************************

 **************************************************************************

                    xk=(   0.00000,   0.03965,   0.07585  )

     Band symmetry, C_s (m)     point group:

     e(  1 -  6) =    -28.48724  eV     6   -->   3 A'             
     e(  1 -  6) =    -28.48724  eV     6   -->   3 A''            
     e(  7 - 12) =    -28.48691  eV     6   -->   3 A'             
     e(  7 - 12) =    -28.48691  eV     6   -->   3 A''            
     e( 13 - 18) =    -28.43346  eV     6   -->   3 A'             
     e( 13 - 18) =    -28.43346  eV     6   -->   3 A''            
     e( 19 - 24) =    -28.43226  eV     6   -->   3 A'             
     e( 19 - 24) =    -28.43226  eV     6   -->   3 A''            
     e( 25 - 27) =    -28.41358  eV     3   -->   3 A'             
     e( 28 - 30) =    -28.41329  eV     3   -->   3 A'             
     e( 31 - 33) =     -6.81229  eV     3   -->   3 A'             
     e( 34 - 36) =     -6.61559  eV     3   -->   3 A'             
     e( 37 - 37) =     -6.61427  eV     1   --> A''            
     e( 38 - 39) =     -6.61412  eV     2   -->   2 A''            
     e( 40 - 42) =     -6.52862  eV     3   -->   3 A'             
     e( 43 - 45) =     -6.52679  eV     3   -->   3 A''            
     e( 46 - 48) =     -6.47633  eV     3   -->   3 A'             
     e( 49 - 51) =     -6.47541  eV     3   -->   3 A''            
     e( 52 - 54) =     -6.35525  eV     3   -->   3 A'             
     e( 55 - 57) =     -6.35429  eV     3   -->   3 A''            
     e( 58 - 59) =     -6.25221  eV     2   -->   2 A'             
     e( 60 - 60) =     -6.25190  eV     1   --> A'             
     e( 61 - 62) =     -3.95054  eV     2   -->   2 A'             
     e( 63 - 63) =     -3.85581  eV     1   --> A'             
     e( 64 - 64) =     -3.67570  eV     1   --> A'             
     e( 65 - 66) =     -3.55891  eV     2   -->   2 A'             
     e( 67 - 68) =      1.98469  eV     2   -->   2 A'             
     e( 69 - 69) =      2.33724  eV     1   --> A'             
     e( 70 - 70) =      3.79436  eV     1   --> A'             
     e( 71 - 71) =      4.54076  eV     1   --> A'             
     e( 72 - 72) =      4.54094  eV     1   --> A'             
     e( 73 - 73) =      6.69148  eV     1   --> A'             
     e( 74 - 74) =      6.69177  eV     1   --> A'             
     e( 75 - 75) =      6.70676  eV     1   --> A'             
     e( 76 - 76) =      6.77324  eV     1   --> A''            
     e( 77 - 77) =      6.79904  eV     1   --> A'             
     e( 78 - 78) =      6.80178  eV     1   --> A'             
     e( 79 - 79) =      6.82603  eV     1   --> A''            
     e( 80 - 80) =      6.84545  eV     1   --> A''            
     e( 81 - 81) =      6.95938  eV     1   --> A'             
     e( 82 - 82) =      7.03080  eV     1   --> A''            
     e( 83 - 83) =      7.05215  eV     1   --> A''            
     e( 84 - 84) =      7.11151  eV     1   --> A''            
     e( 85 - 85) =      7.15158  eV     1   --> A'             
     e( 86 - 86) =      7.15481  eV     1   --> A'             
     e( 87 - 87) =      8.17477  eV     1   --> A'             
     e( 88 - 88) =      8.52199  eV     1   --> A'             
     e( 89 - 89) =      9.42221  eV     1   --> A'             
     e( 90 - 90) =      9.42438  eV     1   --> A'             
     e( 91 - 91) =      9.76075  eV     1   --> A'             
     e( 92 - 92) =      9.80071  eV     1   --> A'             
     e( 93 - 93) =      9.80235  eV     1   --> A'             
     e( 94 - 94) =     11.02935  eV     1   --> A'             
     e( 95 - 95) =     11.04755  eV     1   --> A'             
     e( 96 - 96) =     11.11038  eV     1   --> A''            
     e( 97 - 97) =     11.13127  eV     1   --> A''            
     e( 98 - 98) =     11.15121  eV     1   --> A'             
     e( 99 - 99) =     11.20717  eV     1   --> A''            
     e(100 -100) =     12.11156  eV     1   --> A'             
     e(101 -101) =     12.20407  eV     1   --> A''            
     e(102 -102) =     12.28330  eV     1   --> A'             
     e(103 -103) =     12.32540  eV     1   --> A'             
     e(104 -104) =     12.36528  eV     1   --> A''            
     e(105 -105) =     12.40648  eV     1   --> A''            
     e(106 -106) =     12.80845  eV     1   --> A'             
     e(107 -107) =     12.81332  eV     1   --> A'             
     e(108 -108) =     13.31998  eV     1   --> A'             
     e(109 -109) =     14.18496  eV     1   --> A'             
     e(110 -110) =     14.19320  eV     1   --> A'             
     e(111 -111) =     14.67044  eV     1   --> A'             
     e(112 -112) =     15.03399  eV     1   --> A'             
     e(113 -113) =     15.21730  eV     1   --> A'             
     e(114 -114) =     15.28007  eV     1   --> A''            
     e(115 -115) =     15.30287  eV     1   --> A'             
     e(116 -116) =     15.35829  eV     1   --> A'             
     e(117 -117) =     15.37863  eV     1   --> A'             
     e(118 -118) =     15.50133  eV     1   --> A''            
     e(119 -119) =     15.52184  eV     1   --> A''            
     e(120 -120) =     15.54795  eV     1   --> A'             

 **************************************************************************

 **************************************************************************

                    xk=(   0.00000,   0.05948,   0.07585  )

     Band symmetry, C_s (m)     point group:

     e(  1 -  6) =    -28.48724  eV     6   -->   3 A'             
     e(  1 -  6) =    -28.48724  eV     6   -->   3 A''            
     e(  7 - 12) =    -28.48691  eV     6   -->   3 A'             
     e(  7 - 12) =    -28.48691  eV     6   -->   3 A''            
     e( 13 - 18) =    -28.43346  eV     6   -->   3 A'             
     e( 13 - 18) =    -28.43346  eV     6   -->   3 A''            
     e( 19 - 24) =    -28.43227  eV     6   -->   3 A'             
     e( 19 - 24) =    -28.43227  eV     6   -->   3 A''            
     e( 25 - 27) =    -28.41357  eV     3   -->   3 A'             
     e( 28 - 30) =    -28.41328  eV     3   -->   3 A'             
     e( 31 - 33) =     -6.81197  eV     3   -->   3 A'             
     e( 34 - 36) =     -6.61734  eV     3   -->   3 A'             
     e( 37 - 37) =     -6.61438  eV     1   --> A''            
     e( 38 - 39) =     -6.61423  eV     2   -->   2 A''            
     e( 40 - 42) =     -6.53013  eV     3   -->   3 A'             
     e( 43 - 45) =     -6.52602  eV     3   -->   3 A''            
     e( 46 - 48) =     -6.47682  eV     3   -->   3 A'             
     e( 49 - 51) =     -6.47477  eV     3   -->   3 A''            
     e( 52 - 54) =     -6.35651  eV     3   -->   3 A'             
     e( 55 - 57) =     -6.35441  eV     3   -->   3 A''            
     e( 58 - 59) =     -6.25102  eV     2   -->   2 A'             
     e( 60 - 60) =     -6.25072  eV     1   --> A'             
     e( 61 - 62) =     -3.93611  eV     2   -->   2 A'             
     e( 63 - 63) =     -3.84166  eV     1   --> A'             
     e( 64 - 64) =     -3.66195  eV     1   --> A'             
     e( 65 - 66) =     -3.54564  eV     2   -->   2 A'             
     e( 67 - 68) =      1.99283  eV     2   -->   2 A'             
     e( 69 - 69) =      2.33805  eV     1   --> A'             
     e( 70 - 70) =      3.80365  eV     1   --> A'             
     e( 71 - 71) =      4.52270  eV     1   --> A'             
     e( 72 - 72) =      4.52331  eV     1   --> A'             
     e( 73 - 73) =      6.54203  eV     1   --> A'             
     e( 74 - 74) =      6.55204  eV     1   --> A'             
     e( 75 - 75) =      6.60278  eV     1   --> A'             
     e( 76 - 76) =      6.71524  eV     1   --> A'             
     e( 77 - 77) =      6.72329  eV     1   --> A'             
     e( 78 - 78) =      6.74595  eV     1   --> A''            
     e( 79 - 79) =      6.79307  eV     1   --> A'             
     e( 80 - 80) =      6.79538  eV     1   --> A''            
     e( 81 - 81) =      6.82458  eV     1   --> A''            
     e( 82 - 82) =      7.00361  eV     1   --> A''            
     e( 83 - 83) =      7.03589  eV     1   --> A''            
     e( 84 - 84) =      7.09208  eV     1   --> A''            
     e( 85 - 85) =      7.20270  eV     1   --> A'             
     e( 86 - 86) =      7.20683  eV     1   --> A'             
     e( 87 - 87) =      8.16060  eV     1   --> A'             
     e( 88 - 88) =      8.67114  eV     1   --> A'             
     e( 89 - 89) =      9.47774  eV     1   --> A'             
     e( 90 - 90) =      9.48508  eV     1   --> A'             
     e( 91 - 91) =      9.84525  eV     1   --> A'             
     e( 92 - 92) =      9.89470  eV     1   --> A'             
     e( 93 - 93) =      9.90033  eV     1   --> A'             
     e( 94 - 94) =     10.96418  eV     1   --> A'             
     e( 95 - 95) =     10.98388  eV     1   --> A'             
     e( 96 - 96) =     11.10921  eV     1   --> A'             
     e( 97 - 97) =     11.13571  eV     1   --> A''            
     e( 98 - 98) =     11.16465  eV     1   --> A''            
     e( 99 - 99) =     11.22773  eV     1   --> A''            
     e(100 -100) =     12.05191  eV     1   --> A'             
     e(101 -101) =     12.21977  eV     1   --> A'             
     e(102 -102) =     12.24969  eV     1   --> A''            
     e(103 -103) =     12.28297  eV     1   --> A'             
     e(104 -104) =     12.39519  eV     1   --> A''            
     e(105 -105) =     12.45535  eV     1   --> A''            
     e(106 -106) =     12.79927  eV     1   --> A'             
     e(107 -107) =     12.81409  eV     1   --> A'             
     e(108 -108) =     13.34602  eV     1   --> A'             
     e(109 -109) =     14.27322  eV     1   --> A'             
     e(110 -110) =     14.30126  eV     1   --> A'             
     e(111 -111) =     14.75912  eV     1   --> A'             
     e(112 -112) =     15.09959  eV     1   --> A'             
     e(113 -113) =     15.12923  eV     1   --> A'             
     e(114 -114) =     15.19357  eV     1   --> A'             
     e(115 -115) =     15.21367  eV     1   --> A''            
     e(116 -116) =     15.24623  eV     1   --> A'             
     e(117 -117) =     15.38951  eV     1   --> A'             
     e(118 -118) =     15.45463  eV     1   --> A''            
     e(119 -119) =     15.47359  eV     1   --> A'             
     e(120 -120) =     15.53106  eV     1   --> A'             

 **************************************************************************

 **************************************************************************

                    xk=(   0.00000,   0.07931,   0.07585  )

     Band symmetry, C_s (m)     point group:

     e(  1 -  6) =    -28.48724  eV     6   -->   3 A'             
     e(  1 -  6) =    -28.48724  eV     6   -->   3 A''            
     e(  7 - 12) =    -28.48691  eV     6   -->   3 A'             
     e(  7 - 12) =    -28.48691  eV     6   -->   3 A''            
     e( 13 - 18) =    -28.43347  eV     6   -->   3 A'             
     e( 13 - 18) =    -28.43347  eV     6   -->   3 A''            
     e( 19 - 24) =    -28.43228  eV     6   -->   3 A'             
     e( 19 - 24) =    -28.43228  eV     6   -->   3 A''            
     e( 25 - 27) =    -28.41355  eV     3   -->   3 A'             
     e( 28 - 30) =    -28.41326  eV     3   -->   3 A'             
     e( 31 - 33) =     -6.81153  eV     3   -->   3 A'             
     e( 34 - 36) =     -6.61981  eV     3   -->   3 A'             
     e( 37 - 37) =     -6.61453  eV     1   --> A''            
     e( 38 - 39) =     -6.61439  eV     2   -->   2 A''            
     e( 40 - 42) =     -6.53225  eV     3   -->   3 A'             
     e( 43 - 45) =     -6.52496  eV     3   -->   3 A''            
     e( 46 - 48) =     -6.47750  eV     3   -->   3 A'             
     e( 49 - 51) =     -6.47390  eV     3   -->   3 A''            
     e( 52 - 54) =     -6.35824  eV     3   -->   3 A'             
     e( 55 - 57) =     -6.35458  eV     3   -->   3 A''            
     e( 58 - 59) =     -6.24943  eV     2   -->   2 A'             
     e( 60 - 60) =     -6.24913  eV     1   --> A'             
     e( 61 - 61) =     -3.91607  eV     1   --> A'             
     e( 62 - 62) =     -3.91591  eV     1   --> A'             
     e( 63 - 63) =     -3.82199  eV     1   --> A'             
     e( 64 - 64) =     -3.64284  eV     1   --> A'             
     e( 65 - 65) =     -3.52723  eV     1   --> A'             
     e( 66 - 66) =     -3.52708  eV     1   --> A'             
     e( 67 - 68) =      2.00389  eV     2   -->   2 A'             
     e( 69 - 69) =      2.33869  eV     1   --> A'             
     e( 70 - 70) =      3.81621  eV     1   --> A'             
     e( 71 - 71) =      4.49564  eV     1   --> A'             
     e( 72 - 72) =      4.49718  eV     1   --> A'             
     e( 73 - 73) =      6.37254  eV     1   --> A'             
     e( 74 - 74) =      6.39571  eV     1   --> A'             
     e( 75 - 75) =      6.46595  eV     1   --> A'             
     e( 76 - 76) =      6.60805  eV     1   --> A'             
     e( 77 - 77) =      6.61282  eV     1   --> A'             
     e( 78 - 78) =      6.62800  eV     1   --> A'             
     e( 79 - 79) =      6.70924  eV     1   --> A''            
     e( 80 - 80) =      6.75569  eV     1   --> A''            
     e( 81 - 81) =      6.79470  eV     1   --> A''            
     e( 82 - 82) =      6.96838  eV     1   --> A''            
     e( 83 - 83) =      7.01180  eV     1   --> A''            
     e( 84 - 84) =      7.06532  eV     1   --> A''            
     e( 85 - 85) =      7.23772  eV     1   --> A'             
     e( 86 - 86) =      7.25236  eV     1   --> A'             
     e( 87 - 87) =      8.13707  eV     1   --> A'             
     e( 88 - 88) =      8.83478  eV     1   --> A'             
     e( 89 - 89) =      9.53897  eV     1   --> A'             
     e( 90 - 90) =      9.55661  eV     1   --> A'             
     e( 91 - 91) =      9.94699  eV     1   --> A'             
     e( 92 - 92) =     10.00884  eV     1   --> A'             
     e( 93 - 93) =     10.02286  eV     1   --> A'             
     e( 94 - 94) =     10.89173  eV     1   --> A'             
     e( 95 - 95) =     10.90288  eV     1   --> A'             
     e( 96 - 96) =     11.06204  eV     1   --> A'             
     e( 97 - 97) =     11.17219  eV     1   --> A''            
     e( 98 - 98) =     11.20639  eV     1   --> A''            
     e( 99 - 99) =     11.25495  eV     1   --> A''            
     e(100 -100) =     11.98351  eV     1   --> A'             
     e(101 -101) =     12.14915  eV     1   --> A'             
     e(102 -102) =     12.23315  eV     1   --> A'             
     e(103 -103) =     12.31195  eV     1   --> A''            
     e(104 -104) =     12.44031  eV     1   --> A''            
     e(105 -105) =     12.51741  eV     1   --> A''            
     e(106 -106) =     12.78653  eV     1   --> A'             
     e(107 -107) =     12.81760  eV     1   --> A'             
     e(108 -108) =     13.38260  eV     1   --> A'             
     e(109 -109) =     14.36875  eV     1   --> A'             
     e(110 -110) =     14.43487  eV     1   --> A'             
     e(111 -111) =     14.80936  eV     1   --> A'             
     e(112 -112) =     14.96086  eV     1   --> A'             
     e(113 -113) =     15.01983  eV     1   --> A'             
     e(114 -114) =     15.11766  eV     1   --> A'             
     e(115 -115) =     15.15558  eV     1   --> A''            
     e(116 -116) =     15.29632  eV     1   --> A'             
     e(117 -117) =     15.37893  eV     1   --> A'             
     e(118 -118) =     15.39311  eV     1   --> A'             
     e(119 -119) =     15.40894  eV     1   --> A''            
     e(120 -120) =     15.48606  eV     1   --> A'             

 **************************************************************************

 **************************************************************************

                    xk=(   0.00000,   0.09913,   0.07585  )

     Band symmetry, C_s (m)     point group:

     e(  1 -  6) =    -28.48723  eV     6   -->   3 A'             
     e(  1 -  6) =    -28.48723  eV     6   -->   3 A''            
     e(  7 - 12) =    -28.48690  eV     6   -->   3 A'             
     e(  7 - 12) =    -28.48690  eV     6   -->   3 A''            
     e( 13 - 18) =    -28.43348  eV     6   -->   3 A'             
     e( 13 - 18) =    -28.43348  eV     6   -->   3 A''            
     e( 19 - 24) =    -28.43230  eV     6   -->   3 A'             
     e( 19 - 24) =    -28.43230  eV     6   -->   3 A''            
     e( 25 - 27) =    -28.41353  eV     3   -->   3 A'             
     e( 28 - 30) =    -28.41323  eV     3   -->   3 A'             
     e( 31 - 33) =     -6.81097  eV     3   -->   3 A'             
     e( 34 - 35) =     -6.62297  eV     2   -->   2 A'             
     e( 36 - 36) =     -6.62277  eV     1   --> A'             
     e( 37 - 37) =     -6.61472  eV     1   --> A''            
     e( 38 - 39) =     -6.61459  eV     2   -->   2 A''            
     e( 40 - 42) =     -6.53494  eV     3   -->   3 A'             
     e( 43 - 45) =     -6.52363  eV     3   -->   3 A''            
     e( 46 - 48) =     -6.47834  eV     3   -->   3 A'             
     e( 49 - 51) =     -6.47278  eV     3   -->   3 A''            
     e( 52 - 52) =     -6.36033  eV     1   --> A'             
     e( 53 - 54) =     -6.36022  eV     2   -->   2 A'             
     e( 55 - 57) =     -6.35479  eV     3   -->   3 A''            
     e( 58 - 59) =     -6.24748  eV     2   -->   2 A'             
     e( 60 - 60) =     -6.24719  eV     1   --> A'             
     e( 61 - 61) =     -3.89053  eV     1   --> A'             
     e( 62 - 62) =     -3.89025  eV     1   --> A'             
     e( 63 - 63) =     -3.79693  eV     1   --> A'             
     e( 64 - 64) =     -3.61851  eV     1   --> A'             
     e( 65 - 65) =     -3.50383  eV     1   --> A'             
     e( 66 - 66) =     -3.50354  eV     1   --> A'             
     e( 67 - 68) =      2.01749  eV     2   -->   2 A'             
     e( 69 - 69) =      2.33862  eV     1   --> A'             
     e( 70 - 70) =      3.83154  eV     1   --> A'             
     e( 71 - 71) =      4.45798  eV     1   --> A'             
     e( 72 - 72) =      4.46121  eV     1   --> A'             
     e( 73 - 73) =      6.18940  eV     1   --> A'             
     e( 74 - 74) =      6.22722  eV     1   --> A'             
     e( 75 - 75) =      6.29814  eV     1   --> A'             
     e( 76 - 76) =      6.42400  eV     1   --> A'             
     e( 77 - 77) =      6.50164  eV     1   --> A'             
     e( 78 - 78) =      6.52459  eV     1   --> A'             
     e( 79 - 79) =      6.66435  eV     1   --> A''            
     e( 80 - 80) =      6.70810  eV     1   --> A''            
     e( 81 - 81) =      6.75690  eV     1   --> A''            
     e( 82 - 82) =      6.92583  eV     1   --> A''            
     e( 83 - 83) =      6.98058  eV     1   --> A''            
     e( 84 - 84) =      7.03173  eV     1   --> A''            
     e( 85 - 85) =      7.26058  eV     1   --> A'             
     e( 86 - 86) =      7.28853  eV     1   --> A'             
     e( 87 - 87) =      8.10260  eV     1   --> A'             
     e( 88 - 88) =      8.99786  eV     1   --> A'             
     e( 89 - 89) =      9.59375  eV     1   --> A'             
     e( 90 - 90) =      9.62914  eV     1   --> A'             
     e( 91 - 91) =     10.05043  eV     1   --> A'             
     e( 92 - 92) =     10.12650  eV     1   --> A'             
     e( 93 - 93) =     10.15660  eV     1   --> A'             
     e( 94 - 94) =     10.81301  eV     1   --> A'             
     e( 95 - 95) =     10.82649  eV     1   --> A'             
     e( 96 - 96) =     11.02057  eV     1   --> A'             
     e( 97 - 97) =     11.21840  eV     1   --> A''            
     e( 98 - 98) =     11.25424  eV     1   --> A''            
     e( 99 - 99) =     11.28735  eV     1   --> A''            
     e(100 -100) =     11.91769  eV     1   --> A'             
     e(101 -101) =     12.08261  eV     1   --> A'             
     e(102 -102) =     12.18610  eV     1   --> A'             
     e(103 -103) =     12.38941  eV     1   --> A''            
     e(104 -104) =     12.49952  eV     1   --> A''            
     e(105 -105) =     12.59074  eV     1   --> A''            
     e(106 -106) =     12.77301  eV     1   --> A'             
     e(107 -107) =     12.82596  eV     1   --> A'             
     e(108 -108) =     13.42953  eV     1   --> A'             
     e(109 -109) =     14.44362  eV     1   --> A'             
     e(110 -110) =     14.55517  eV     1   --> A'             
     e(111 -111) =     14.67066  eV     1   --> A'             
     e(112 -112) =     14.81537  eV     1   --> A'             
     e(113 -113) =     14.98485  eV     1   --> A'             
     e(114 -114) =     15.09249  eV     1   --> A'             
     e(115 -115) =     15.10963  eV     1   --> A''            
     e(116 -116) =     15.21710  eV     1   --> A'             
     e(117 -117) =     15.37151  eV     1   --> A''            
     e(118 -118) =     15.41354  eV     1   --> A'             
     e(119 -119) =     15.46030  eV     1   --> A'             
     e(120 -120) =     15.51534  eV     1   --> A'             

 **************************************************************************

 **************************************************************************

                    xk=(   0.00000,   0.11896,   0.07585  )

     Band symmetry, C_s (m)     point group:

     e(  1 -  9) =    -28.48723  eV     9   -->   6 A'             
     e(  1 -  9) =    -28.48723  eV     9   -->   3 A''            
     e( 10 - 12) =    -28.48673  eV     3   -->   3 A''            
     e( 13 - 18) =    -28.43348  eV     6   -->   3 A'             
     e( 13 - 18) =    -28.43348  eV     6   -->   3 A''            
     e( 19 - 24) =    -28.43232  eV     6   -->   3 A'             
     e( 19 - 24) =    -28.43232  eV     6   -->   3 A''            
     e( 25 - 27) =    -28.41350  eV     3   -->   3 A'             
     e( 28 - 30) =    -28.41320  eV     3   -->   3 A'             
     e( 31 - 33) =     -6.81031  eV     3   -->   3 A'             
     e( 34 - 35) =     -6.62674  eV     2   -->   2 A'             
     e( 36 - 36) =     -6.62639  eV     1   --> A'             
     e( 37 - 37) =     -6.61495  eV     1   --> A''            
     e( 38 - 39) =     -6.61482  eV     2   -->   2 A''            
     e( 40 - 40) =     -6.53815  eV     1   --> A'             
     e( 41 - 41) =     -6.53801  eV     1   --> A'             
     e( 42 - 42) =     -6.53787  eV     1   --> A'             
     e( 43 - 45) =     -6.52203  eV     3   -->   3 A''            
     e( 46 - 48) =     -6.47932  eV     3   -->   3 A'             
     e( 49 - 51) =     -6.47145  eV     3   -->   3 A''            
     e( 52 - 52) =     -6.36269  eV     1   --> A'             
     e( 53 - 54) =     -6.36251  eV     2   -->   2 A'             
     e( 55 - 57) =     -6.35504  eV     3   -->   3 A''            
     e( 58 - 59) =     -6.24524  eV     2   -->   2 A'             
     e( 60 - 60) =     -6.24497  eV     1   --> A'             
     e( 61 - 61) =     -3.85967  eV     1   --> A'             
     e( 62 - 62) =     -3.85920  eV     1   --> A'             
     e( 63 - 63) =     -3.76668  eV     1   --> A'             
     e( 64 - 64) =     -3.58912  eV     1   --> A'             
     e( 65 - 65) =     -3.47563  eV     1   --> A'             
     e( 66 - 66) =     -3.47515  eV     1   --> A'             
     e( 67 - 68) =      2.03315  eV     2   -->   2 A'             
     e( 69 - 69) =      2.33719  eV     1   --> A'             
     e( 70 - 70) =      3.84885  eV     1   --> A'             
     e( 71 - 71) =      4.40794  eV     1   --> A'             
     e( 72 - 72) =      4.41391  eV     1   --> A'             
     e( 73 - 73) =      5.99755  eV     1   --> A'             
     e( 74 - 74) =      6.05037  eV     1   --> A'             
     e( 75 - 75) =      6.10502  eV     1   --> A'             
     e( 76 - 76) =      6.25045  eV     1   --> A'             
     e( 77 - 77) =      6.39059  eV     1   --> A'             
     e( 78 - 78) =      6.42052  eV     1   --> A'             
     e( 79 - 79) =      6.61265  eV     1   --> A''            
     e( 80 - 80) =      6.65387  eV     1   --> A''            
     e( 81 - 81) =      6.71239  eV     1   --> A''            
     e( 82 - 82) =      6.87688  eV     1   --> A''            
     e( 83 - 83) =      6.94306  eV     1   --> A''            
     e( 84 - 84) =      6.99198  eV     1   --> A''            
     e( 85 - 85) =      7.27249  eV     1   --> A'             
     e( 86 - 86) =      7.31649  eV     1   --> A'             
     e( 87 - 87) =      8.05631  eV     1   --> A'             
     e( 88 - 88) =      9.15025  eV     1   --> A'             
     e( 89 - 89) =      9.63025  eV     1   --> A'             
     e( 90 - 90) =      9.69302  eV     1   --> A'             
     e( 91 - 91) =     10.13663  eV     1   --> A'             
     e( 92 - 92) =     10.22514  eV     1   --> A'             
     e( 93 - 93) =     10.28429  eV     1   --> A'             
     e( 94 - 94) =     10.72453  eV     1   --> A'             
     e( 95 - 95) =     10.78695  eV     1   --> A'             
     e( 96 - 96) =     10.99737  eV     1   --> A'             
     e( 97 - 97) =     11.27253  eV     1   --> A''            
     e( 98 - 98) =     11.30571  eV     1   --> A''            
     e( 99 - 99) =     11.32317  eV     1   --> A''            
     e(100 -100) =     11.86653  eV     1   --> A'             
     e(101 -101) =     12.03250  eV     1   --> A'             
     e(102 -102) =     12.15219  eV     1   --> A'             
     e(103 -103) =     12.48032  eV     1   --> A''            
     e(104 -104) =     12.57142  eV     1   --> A''            
     e(105 -105) =     12.67297  eV     1   --> A''            
     e(106 -106) =     12.76270  eV     1   --> A'             
     e(107 -107) =     12.84205  eV     1   --> A'             
     e(108 -108) =     13.48604  eV     1   --> A'             
     e(109 -109) =     14.46339  eV     1   --> A'             
     e(110 -110) =     14.48624  eV     1   --> A'             
     e(111 -111) =     14.54902  eV     1   --> A'             
     e(112 -112) =     14.68381  eV     1   --> A'             
     e(113 -113) =     14.99134  eV     1   --> A'             
     e(114 -114) =     15.07906  eV     1   --> A''            
     e(115 -115) =     15.09731  eV     1   --> A'             
     e(116 -116) =     15.21839  eV     1   --> A'             
     e(117 -117) =     15.34713  eV     1   --> A''            
     e(118 -118) =     15.41186  eV     1   --> A'             
     e(119 -119) =     15.47664  eV     1   --> A'             
     e(120 -120) =     15.49839  eV     1   --> A''            

 **************************************************************************

 **************************************************************************

                    xk=(   0.00000,   0.13879,   0.07585  )

     Band symmetry, C_s (m)     point group:

     e(  1 -  3) =    -28.48723  eV     3   -->   3 A'             
     e(  4 -  9) =    -28.48700  eV     6   -->   3 A'             
     e(  4 -  9) =    -28.48700  eV     6   -->   3 A''            
     e( 10 - 12) =    -28.48667  eV     3   -->   3 A''            
     e( 13 - 18) =    -28.43349  eV     6   -->   3 A'             
     e( 13 - 18) =    -28.43349  eV     6   -->   3 A''            
     e( 19 - 24) =    -28.43235  eV     6   -->   3 A'             
     e( 19 - 24) =    -28.43235  eV     6   -->   3 A''            
     e( 25 - 27) =    -28.41346  eV     3   -->   3 A'             
     e( 28 - 30) =    -28.41317  eV     3   -->   3 A'             
     e( 31 - 33) =     -6.80956  eV     3   -->   3 A'             
     e( 34 - 34) =     -6.63106  eV     1   --> A'             
     e( 35 - 35) =     -6.63095  eV     1   --> A'             
     e( 36 - 36) =     -6.63055  eV     1   --> A'             
     e( 37 - 37) =     -6.61522  eV     1   --> A''            
     e( 38 - 39) =     -6.61510  eV     2   -->   2 A''            
     e( 40 - 40) =     -6.54185  eV     1   --> A'             
     e( 41 - 41) =     -6.54167  eV     1   --> A'             
     e( 42 - 42) =     -6.54145  eV     1   --> A'             
     e( 43 - 45) =     -6.52020  eV     3   -->   3 A''            
     e( 46 - 48) =     -6.48043  eV     3   -->   3 A'             
     e( 49 - 51) =     -6.46991  eV     3   -->   3 A''            
     e( 52 - 52) =     -6.36524  eV     1   --> A'             
     e( 53 - 54) =     -6.36498  eV     2   -->   2 A'             
     e( 55 - 57) =     -6.35533  eV     3   -->   3 A''            
     e( 58 - 59) =     -6.24277  eV     2   -->   2 A'             
     e( 60 - 60) =     -6.24251  eV     1   --> A'             
     e( 61 - 61) =     -3.82369  eV     1   --> A'             
     e( 62 - 62) =     -3.82296  eV     1   --> A'             
     e( 63 - 63) =     -3.73143  eV     1   --> A'             
     e( 64 - 64) =     -3.55490  eV     1   --> A'             
     e( 65 - 65) =     -3.44288  eV     1   --> A'             
     e( 66 - 66) =     -3.44212  eV     1   --> A'             
     e( 67 - 67) =      2.05019  eV     1   --> A'             
     e( 68 - 68) =      2.05038  eV     1   --> A'             
     e( 69 - 69) =      2.33356  eV     1   --> A'             
     e( 70 - 70) =      3.86700  eV     1   --> A'             
     e( 71 - 71) =      4.34386  eV     1   --> A'             
     e( 72 - 72) =      4.35390  eV     1   --> A'             
     e( 73 - 73) =      5.80138  eV     1   --> A'             
     e( 74 - 74) =      5.86869  eV     1   --> A'             
     e( 75 - 75) =      5.90017  eV     1   --> A'             
     e( 76 - 76) =      6.08526  eV     1   --> A'             
     e( 77 - 77) =      6.28683  eV     1   --> A'             
     e( 78 - 78) =      6.32172  eV     1   --> A'             
     e( 79 - 79) =      6.55552  eV     1   --> A''            
     e( 80 - 80) =      6.59431  eV     1   --> A''            
     e( 81 - 81) =      6.66241  eV     1   --> A''            
     e( 82 - 82) =      6.82256  eV     1   --> A''            
     e( 83 - 83) =      6.90016  eV     1   --> A''            
     e( 84 - 84) =      6.94687  eV     1   --> A''            
     e( 85 - 85) =      7.27441  eV     1   --> A'             
     e( 86 - 86) =      7.33725  eV     1   --> A'             
     e( 87 - 87) =      7.99778  eV     1   --> A'             
     e( 88 - 88) =      9.28443  eV     1   --> A'             
     e( 89 - 89) =      9.63925  eV     1   --> A'             
     e( 90 - 90) =      9.73955  eV     1   --> A'             
     e( 91 - 91) =     10.18757  eV     1   --> A'             
     e( 92 - 92) =     10.28067  eV     1   --> A'             
     e( 93 - 93) =     10.37890  eV     1   --> A'             
     e( 94 - 94) =     10.65548  eV     1   --> A'             
     e( 95 - 95) =     10.78960  eV     1   --> A'             
     e( 96 - 96) =     11.00183  eV     1   --> A'             
     e( 97 - 97) =     11.33254  eV     1   --> A''            
     e( 98 - 98) =     11.35817  eV     1   --> A''            
     e( 99 - 99) =     11.36050  eV     1   --> A''            
     e(100 -100) =     11.84271  eV     1   --> A'             
     e(101 -101) =     12.01179  eV     1   --> A'             
     e(102 -102) =     12.14150  eV     1   --> A'             
     e(103 -103) =     12.58275  eV     1   --> A''            
     e(104 -104) =     12.65434  eV     1   --> A''            
     e(105 -105) =     12.75982  eV     1   --> A'             
     e(106 -106) =     12.76129  eV     1   --> A''            
     e(107 -107) =     12.86874  eV     1   --> A'             
     e(108 -108) =     13.55002  eV     1   --> A'             
     e(109 -109) =     14.31360  eV     1   --> A'             
     e(110 -110) =     14.40165  eV     1   --> A'             
     e(111 -111) =     14.41765  eV     1   --> A'             
     e(112 -112) =     14.59288  eV     1   --> A'             
     e(113 -113) =     14.98590  eV     1   --> A'             
     e(114 -114) =     15.06663  eV     1   --> A''            
     e(115 -115) =     15.13926  eV     1   --> A'             
     e(116 -116) =     15.29100  eV     1   --> A'             
     e(117 -117) =     15.29750  eV     1   --> A'             
     e(118 -118) =     15.33912  eV     1   --> A''            
     e(119 -119) =     15.46880  eV     1   --> A''            
     e(120 -120) =     15.58333  eV     1   --> A'             

 **************************************************************************

 **************************************************************************

                    xk=(   0.00000,   0.15861,   0.07585  )

     Band symmetry, C_s (m)     point group:

     e(  1 -  3) =    -28.48722  eV     3   -->   3 A'             
     e(  4 -  9) =    -28.48693  eV     6   -->   3 A'             
     e(  4 -  9) =    -28.48693  eV     6   -->   3 A''            
     e( 10 - 12) =    -28.48660  eV     3   -->   3 A''            
     e( 13 - 18) =    -28.43350  eV     6   -->   3 A'             
     e( 13 - 18) =    -28.43350  eV     6   -->   3 A''            
     e( 19 - 24) =    -28.43238  eV     6   -->   3 A'             
     e( 19 - 24) =    -28.43238  eV     6   -->   3 A''            
     e( 25 - 27) =    -28.41342  eV     3   -->   3 A'             
     e( 28 - 30) =    -28.41313  eV     3   -->   3 A'             
     e( 31 - 33) =     -6.80871  eV     3   -->   3 A'             
     e( 34 - 34) =     -6.63587  eV     1   --> A'             
     e( 35 - 35) =     -6.63569  eV     1   --> A'             
     e( 36 - 36) =     -6.63518  eV     1   --> A'             
     e( 37 - 37) =     -6.61553  eV     1   --> A''            
     e( 38 - 39) =     -6.61540  eV     2   -->   2 A''            
     e( 40 - 40) =     -6.54597  eV     1   --> A'             
     e( 41 - 41) =     -6.54575  eV     1   --> A'             
     e( 42 - 42) =     -6.54545  eV     1   --> A'             
     e( 43 - 45) =     -6.51816  eV     3   -->   3 A''            
     e( 46 - 48) =     -6.48163  eV     3   -->   3 A'             
     e( 49 - 51) =     -6.46818  eV     3   -->   3 A''            
     e( 52 - 52) =     -6.36790  eV     1   --> A'             
     e( 53 - 54) =     -6.36756  eV     2   -->   2 A'             
     e( 55 - 57) =     -6.35565  eV     3   -->   3 A''            
     e( 58 - 59) =     -6.24012  eV     2   -->   2 A'             
     e( 60 - 60) =     -6.23989  eV     1   --> A'             
     e( 61 - 61) =     -3.78284  eV     1   --> A'             
     e( 62 - 62) =     -3.78176  eV     1   --> A'             
     e( 63 - 63) =     -3.69146  eV     1   --> A'             
     e( 64 - 64) =     -3.51610  eV     1   --> A'             
     e( 65 - 65) =     -3.40586  eV     1   --> A'             
     e( 66 - 66) =     -3.40474  eV     1   --> A'             
     e( 67 - 67) =      2.06781  eV     1   --> A'             
     e( 68 - 68) =      2.06819  eV     1   --> A'             
     e( 69 - 69) =      2.32678  eV     1   --> A'             
     e( 70 - 70) =      3.88426  eV     1   --> A'             
     e( 71 - 71) =      4.26466  eV     1   --> A'             
     e( 72 - 72) =      4.28021  eV     1   --> A'             
     e( 73 - 73) =      5.60481  eV     1   --> A'             
     e( 74 - 74) =      5.68560  eV     1   --> A'             
     e( 75 - 75) =      5.69487  eV     1   --> A'             
     e( 76 - 76) =      5.92659  eV     1   --> A'             
     e( 77 - 77) =      6.19549  eV     1   --> A'             
     e( 78 - 78) =      6.23256  eV     1   --> A'             
     e( 79 - 79) =      6.49431  eV     1   --> A''            
     e( 80 - 80) =      6.53074  eV     1   --> A''            
     e( 81 - 81) =      6.60819  eV     1   --> A''            
     e( 82 - 82) =      6.76397  eV     1   --> A''            
     e( 83 - 83) =      6.85286  eV     1   --> A''            
     e( 84 - 84) =      6.89734  eV     1   --> A''            
     e( 85 - 85) =      7.26686  eV     1   --> A'             
     e( 86 - 86) =      7.35135  eV     1   --> A'             
     e( 87 - 87) =      7.92698  eV     1   --> A'             
     e( 88 - 88) =      9.39487  eV     1   --> A'             
     e( 89 - 89) =      9.61734  eV     1   --> A'             
     e( 90 - 90) =      9.76215  eV     1   --> A'             
     e( 91 - 91) =     10.19583  eV     1   --> A'             
     e( 92 - 92) =     10.28727  eV     1   --> A'             
     e( 93 - 93) =     10.39849  eV     1   --> A'             
     e( 94 - 94) =     10.63846  eV     1   --> A'             
     e( 95 - 95) =     10.82763  eV     1   --> A'             
     e( 96 - 96) =     11.03099  eV     1   --> A'             
     e( 97 - 97) =     11.39624  eV     1   --> A''            
     e( 98 - 98) =     11.39740  eV     1   --> A''            
     e( 99 - 99) =     11.40904  eV     1   --> A''            
     e(100 -100) =     11.85821  eV     1   --> A'             
     e(101 -101) =     12.03184  eV     1   --> A'             
     e(102 -102) =     12.16277  eV     1   --> A'             
     e(103 -103) =     12.69459  eV     1   --> A''            
     e(104 -104) =     12.74644  eV     1   --> A''            
     e(105 -105) =     12.76746  eV     1   --> A'             
     e(106 -106) =     12.85245  eV     1   --> A''            
     e(107 -107) =     12.90755  eV     1   --> A'             
     e(108 -108) =     13.61596  eV     1   --> A'             
     e(109 -109) =     14.16653  eV     1   --> A'             
     e(110 -110) =     14.26839  eV     1   --> A'             
     e(111 -111) =     14.28988  eV     1   --> A'             
     e(112 -112) =     14.52895  eV     1   --> A'             
     e(113 -113) =     14.88072  eV     1   --> A'             
     e(114 -114) =     15.07466  eV     1   --> A''            
     e(115 -115) =     15.13574  eV     1   --> A'             
     e(116 -116) =     15.27102  eV     1   --> A'             
     e(117 -117) =     15.32229  eV     1   --> A'             
     e(118 -118) =     15.34984  eV     1   --> A''            
     e(119 -119) =     15.44524  eV     1   --> A''            
     e(120 -120) =     15.66317  eV     1   --> A'             

 **************************************************************************

 **************************************************************************

                    xk=(   0.00000,   0.17844,   0.07585  )

     Band symmetry, C_s (m)     point group:

     e(  1 -  3) =    -28.48722  eV     3   -->   3 A'             
     e(  4 -  9) =    -28.48688  eV     6   -->   3 A'             
     e(  4 -  9) =    -28.48688  eV     6   -->   3 A''            
     e( 10 - 12) =    -28.48652  eV     3   -->   3 A''            
     e( 13 - 18) =    -28.43351  eV     6   -->   3 A'             
     e( 13 - 18) =    -28.43351  eV     6   -->   3 A''            
     e( 19 - 21) =    -28.43241  eV     3   -->   3 A'             
     e( 22 - 24) =    -28.43223  eV     3   -->   3 A''            
     e( 25 - 27) =    -28.41338  eV     3   -->   3 A'             
     e( 28 - 30) =    -28.41309  eV     3   -->   3 A'             
     e( 31 - 33) =     -6.80779  eV     3   -->   3 A'             
     e( 34 - 34) =     -6.64110  eV     1   --> A'             
     e( 35 - 35) =     -6.64084  eV     1   --> A'             
     e( 36 - 36) =     -6.64023  eV     1   --> A'             
     e( 37 - 37) =     -6.61586  eV     1   --> A''            
     e( 38 - 39) =     -6.61574  eV     2   -->   2 A''            
     e( 40 - 40) =     -6.55046  eV     1   --> A'             
     e( 41 - 41) =     -6.55021  eV     1   --> A'             
     e( 42 - 42) =     -6.54981  eV     1   --> A'             
     e( 43 - 45) =     -6.51593  eV     3   -->   3 A''            
     e( 46 - 48) =     -6.48291  eV     3   -->   3 A'             
     e( 49 - 51) =     -6.46629  eV     3   -->   3 A''            
     e( 52 - 52) =     -6.37060  eV     1   --> A'             
     e( 53 - 54) =     -6.37020  eV     2   -->   2 A'             
     e( 55 - 57) =     -6.35600  eV     3   -->   3 A''            
     e( 58 - 59) =     -6.23734  eV     2   -->   2 A'             
     e( 60 - 60) =     -6.23714  eV     1   --> A'             
     e( 61 - 61) =     -3.73741  eV     1   --> A'             
     e( 62 - 62) =     -3.73588  eV     1   --> A'             
     e( 63 - 63) =     -3.64706  eV     1   --> A'             
     e( 64 - 64) =     -3.47304  eV     1   --> A'             
     e( 65 - 65) =     -3.36492  eV     1   --> A'             
     e( 66 - 66) =     -3.36334  eV     1   --> A'             
     e( 67 - 67) =      2.08495  eV     1   --> A'             
     e( 68 - 68) =      2.08568  eV     1   --> A'             
     e( 69 - 69) =      2.31580  eV     1   --> A'             
     e( 70 - 70) =      3.89801  eV     1   --> A'             
     e( 71 - 71) =      4.17015  eV     1   --> A'             
     e( 72 - 72) =      4.19258  eV     1   --> A'             
     e( 73 - 73) =      5.41149  eV     1   --> A'             
     e( 74 - 74) =      5.49654  eV     1   --> A'             
     e( 75 - 75) =      5.50443  eV     1   --> A'             
     e( 76 - 76) =      5.77566  eV     1   --> A'             
     e( 77 - 77) =      6.11965  eV     1   --> A'             
     e( 78 - 78) =      6.15575  eV     1   --> A'             
     e( 79 - 79) =      6.43027  eV     1   --> A''            
     e( 80 - 80) =      6.46438  eV     1   --> A''            
     e( 81 - 81) =      6.55090  eV     1   --> A''            
     e( 82 - 82) =      6.70223  eV     1   --> A''            
     e( 83 - 83) =      6.80216  eV     1   --> A''            
     e( 84 - 84) =      6.84433  eV     1   --> A''            
     e( 85 - 85) =      7.25009  eV     1   --> A'             
     e( 86 - 86) =      7.35890  eV     1   --> A'             
     e( 87 - 87) =      7.84419  eV     1   --> A'             
     e( 88 - 88) =      9.47840  eV     1   --> A'             
     e( 89 - 89) =      9.56818  eV     1   --> A'             
     e( 90 - 90) =      9.75751  eV     1   --> A'             
     e( 91 - 91) =     10.16819  eV     1   --> A'             
     e( 92 - 92) =     10.26012  eV     1   --> A'             
     e( 93 - 93) =     10.35074  eV     1   --> A'             
     e( 94 - 94) =     10.65989  eV     1   --> A'             
     e( 95 - 95) =     10.87022  eV     1   --> A'             
     e( 96 - 96) =     11.06934  eV     1   --> A'             
     e( 97 - 97) =     11.43207  eV     1   --> A''            
     e( 98 - 98) =     11.45599  eV     1   --> A''            
     e( 99 - 99) =     11.46144  eV     1   --> A''            
     e(100 -100) =     11.91987  eV     1   --> A'             
     e(101 -101) =     12.09787  eV     1   --> A'             
     e(102 -102) =     12.22109  eV     1   --> A'             
     e(103 -103) =     12.78552  eV     1   --> A'             
     e(104 -104) =     12.81359  eV     1   --> A''            
     e(105 -105) =     12.84571  eV     1   --> A''            
     e(106 -106) =     12.94282  eV     1   --> A''            
     e(107 -107) =     12.95649  eV     1   --> A'             
     e(108 -108) =     13.66935  eV     1   --> A'             
     e(109 -109) =     14.06149  eV     1   --> A'             
     e(110 -110) =     14.13784  eV     1   --> A'             
     e(111 -111) =     14.17641  eV     1   --> A'             
     e(112 -112) =     14.46739  eV     1   --> A'             
     e(113 -113) =     14.78521  eV     1   --> A'             
     e(114 -114) =     14.98612  eV     1   --> A'             
     e(115 -115) =     15.10491  eV     1   --> A''            
     e(116 -116) =     15.17951  eV     1   --> A'             
     e(117 -117) =     15.38093  eV     1   --> A''            
     e(118 -118) =     15.43401  eV     1   --> A''            
     e(119 -119) =     15.45530  eV     1   --> A'             
     e(120 -120) =     15.75439  eV     1   --> A'             

 **************************************************************************

 **************************************************************************

                    xk=(   0.00000,   0.19826,   0.07585  )

     Band symmetry, C_s (m)     point group:

     e(  1 -  3) =    -28.48721  eV     3   -->   3 A'             
     e(  4 -  9) =    -28.48687  eV     6   -->   3 A'             
     e(  4 -  9) =    -28.48687  eV     6   -->   3 A''            
     e( 10 - 12) =    -28.48644  eV     3   -->   3 A''            
     e( 13 - 18) =    -28.43353  eV     6   -->   3 A'             
     e( 13 - 18) =    -28.43353  eV     6   -->   3 A''            
     e( 19 - 21) =    -28.43244  eV     3   -->   3 A'             
     e( 22 - 24) =    -28.43222  eV     3   -->   3 A''            
     e( 25 - 27) =    -28.41334  eV     3   -->   3 A'             
     e( 28 - 30) =    -28.41305  eV     3   -->   3 A'             
     e( 31 - 33) =     -6.80681  eV     3   -->   3 A'             
     e( 34 - 34) =     -6.64666  eV     1   --> A'             
     e( 35 - 35) =     -6.64632  eV     1   --> A'             
     e( 36 - 36) =     -6.64562  eV     1   --> A'             
     e( 37 - 37) =     -6.61622  eV     1   --> A''            
     e( 38 - 39) =     -6.61611  eV     2   -->   2 A''            
     e( 40 - 40) =     -6.55525  eV     1   --> A'             
     e( 41 - 41) =     -6.55499  eV     1   --> A'             
     e( 42 - 42) =     -6.55447  eV     1   --> A'             
     e( 43 - 45) =     -6.51355  eV     3   -->   3 A''            
     e( 46 - 48) =     -6.48425  eV     3   -->   3 A'             
     e( 49 - 51) =     -6.46425  eV     3   -->   3 A''            
     e( 52 - 52) =     -6.37328  eV     1   --> A'             
     e( 53 - 54) =     -6.37285  eV     2   -->   2 A'             
     e( 55 - 57) =     -6.35638  eV     3   -->   3 A''            
     e( 58 - 59) =     -6.23449  eV     2   -->   2 A'             
     e( 60 - 60) =     -6.23431  eV     1   --> A'             
     e( 61 - 61) =     -3.68770  eV     1   --> A'             
     e( 62 - 62) =     -3.68564  eV     1   --> A'             
     e( 63 - 63) =     -3.59858  eV     1   --> A'             
     e( 64 - 64) =     -3.42606  eV     1   --> A'             
     e( 65 - 65) =     -3.32044  eV     1   --> A'             
     e( 66 - 66) =     -3.31828  eV     1   --> A'             
     e( 67 - 67) =      2.10035  eV     1   --> A'             
     e( 68 - 68) =      2.10166  eV     1   --> A'             
     e( 69 - 69) =      2.29952  eV     1   --> A'             
     e( 70 - 70) =      3.90433  eV     1   --> A'             
     e( 71 - 71) =      4.06130  eV     1   --> A'             
     e( 72 - 72) =      4.09164  eV     1   --> A'             
     e( 73 - 73) =      5.22492  eV     1   --> A'             
     e( 74 - 74) =      5.31166  eV     1   --> A'             
     e( 75 - 75) =      5.32841  eV     1   --> A'             
     e( 76 - 76) =      5.63484  eV     1   --> A'             
     e( 77 - 77) =      6.06039  eV     1   --> A'             
     e( 78 - 78) =      6.09245  eV     1   --> A'             
     e( 79 - 79) =      6.36457  eV     1   --> A''            
     e( 80 - 80) =      6.39640  eV     1   --> A''            
     e( 81 - 81) =      6.49163  eV     1   --> A''            
     e( 82 - 82) =      6.63843  eV     1   --> A''            
     e( 83 - 83) =      6.74905  eV     1   --> A''            
     e( 84 - 84) =      6.78883  eV     1   --> A''            
     e( 85 - 85) =      7.22417  eV     1   --> A'             
     e( 86 - 86) =      7.35955  eV     1   --> A'             
     e( 87 - 87) =      7.75000  eV     1   --> A'             
     e( 88 - 88) =      9.50006  eV     1   --> A'             
     e( 89 - 89) =      9.53476  eV     1   --> A'             
     e( 90 - 90) =      9.72616  eV     1   --> A'             
     e( 91 - 91) =     10.11676  eV     1   --> A'             
     e( 92 - 92) =     10.21279  eV     1   --> A'             
     e( 93 - 93) =     10.28431  eV     1   --> A'             
     e( 94 - 94) =     10.67218  eV     1   --> A'             
     e( 95 - 95) =     10.89172  eV     1   --> A'             
     e( 96 - 96) =     11.10212  eV     1   --> A'             
     e( 97 - 97) =     11.46300  eV     1   --> A''            
     e( 98 - 98) =     11.49711  eV     1   --> A''            
     e( 99 - 99) =     11.52603  eV     1   --> A''            
     e(100 -100) =     12.02409  eV     1   --> A'             
     e(101 -101) =     12.20527  eV     1   --> A'             
     e(102 -102) =     12.31468  eV     1   --> A'             
     e(103 -103) =     12.80877  eV     1   --> A'             
     e(104 -104) =     12.93733  eV     1   --> A''            
     e(105 -105) =     12.95006  eV     1   --> A''            
     e(106 -106) =     13.00743  eV     1   --> A'             
     e(107 -107) =     13.02858  eV     1   --> A''            
     e(108 -108) =     13.68253  eV     1   --> A'             
     e(109 -109) =     14.02408  eV     1   --> A'             
     e(110 -110) =     14.04230  eV     1   --> A'             
     e(111 -111) =     14.08486  eV     1   --> A'             
     e(112 -112) =     14.40827  eV     1   --> A'             
     e(113 -113) =     14.70249  eV     1   --> A'             
     e(114 -114) =     14.85500  eV     1   --> A'             
     e(115 -115) =     15.06431  eV     1   --> A'             
     e(116 -116) =     15.15855  eV     1   --> A''            
     e(117 -117) =     15.43332  eV     1   --> A''            
     e(118 -118) =     15.44044  eV     1   --> A''            
     e(119 -119) =     15.52606  eV     1   --> A'             
     e(120 -120) =     15.84761  eV     1   --> A'             

 **************************************************************************

 **************************************************************************

                    xk=(   0.00000,   0.21809,   0.07585  )

     Band symmetry, C_s (m)     point group:

     e(  1 -  3) =    -28.48721  eV     3   -->   3 A'             
     e(  4 -  6) =    -28.48686  eV     3   -->   3 A'             
     e(  7 -  9) =    -28.48668  eV     3   -->   3 A''            
     e( 10 - 12) =    -28.48635  eV     3   -->   3 A''            
     e( 13 - 18) =    -28.43354  eV     6   -->   3 A'             
     e( 13 - 18) =    -28.43354  eV     6   -->   3 A''            
     e( 19 - 21) =    -28.43248  eV     3   -->   3 A'             
     e( 22 - 24) =    -28.43222  eV     3   -->   3 A''            
     e( 25 - 27) =    -28.41329  eV     3   -->   3 A'             
     e( 28 - 30) =    -28.41301  eV     3   -->   3 A'             
     e( 31 - 31) =     -6.80577  eV     1   --> A'             
     e( 32 - 33) =     -6.80566  eV     2   -->   2 A'             
     e( 34 - 34) =     -6.65248  eV     1   --> A'             
     e( 35 - 35) =     -6.65204  eV     1   --> A'             
     e( 36 - 36) =     -6.65128  eV     1   --> A'             
     e( 37 - 37) =     -6.61660  eV     1   --> A''            
     e( 38 - 38) =     -6.61650  eV     1   --> A''            
     e( 39 - 39) =     -6.61639  eV     1   --> A''            
     e( 40 - 40) =     -6.56026  eV     1   --> A'             
     e( 41 - 41) =     -6.56001  eV     1   --> A'             
     e( 42 - 42) =     -6.55936  eV     1   --> A'             
     e( 43 - 45) =     -6.51105  eV     3   -->   3 A''            
     e( 46 - 46) =     -6.48563  eV     1   --> A'             
     e( 47 - 48) =     -6.48552  eV     2   -->   2 A'             
     e( 49 - 51) =     -6.46210  eV     3   -->   3 A''            
     e( 52 - 52) =     -6.37591  eV     1   --> A'             
     e( 53 - 54) =     -6.37545  eV     2   -->   2 A'             
     e( 55 - 57) =     -6.35677  eV     3   -->   3 A''            
     e( 58 - 59) =     -6.23159  eV     2   -->   2 A'             
     e( 60 - 60) =     -6.23145  eV     1   --> A'             
     e( 61 - 61) =     -3.63411  eV     1   --> A'             
     e( 62 - 62) =     -3.63139  eV     1   --> A'             
     e( 63 - 63) =     -3.54640  eV     1   --> A'             
     e( 64 - 64) =     -3.37559  eV     1   --> A'             
     e( 65 - 65) =     -3.27287  eV     1   --> A'             
     e( 66 - 66) =     -3.27002  eV     1   --> A'             
     e( 67 - 67) =      2.11250  eV     1   --> A'             
     e( 68 - 68) =      2.11474  eV     1   --> A'             
     e( 69 - 69) =      2.27687  eV     1   --> A'             
     e( 70 - 70) =      3.89761  eV     1   --> A'             
     e( 71 - 71) =      3.94010  eV     1   --> A'             
     e( 72 - 72) =      3.97879  eV     1   --> A'             
     e( 73 - 73) =      5.04858  eV     1   --> A'             
     e( 74 - 74) =      5.14742  eV     1   --> A'             
     e( 75 - 75) =      5.16074  eV     1   --> A'             
     e( 76 - 76) =      5.50660  eV     1   --> A'             
     e( 77 - 77) =      6.01712  eV     1   --> A'             
     e( 78 - 78) =      6.04240  eV     1   --> A'             
     e( 79 - 79) =      6.29825  eV     1   --> A''            
     e( 80 - 80) =      6.32783  eV     1   --> A''            
     e( 81 - 81) =      6.43139  eV     1   --> A''            
     e( 82 - 82) =      6.57358  eV     1   --> A''            
     e( 83 - 83) =      6.69446  eV     1   --> A''            
     e( 84 - 84) =      6.73179  eV     1   --> A''            
     e( 85 - 85) =      7.18924  eV     1   --> A'             
     e( 86 - 86) =      7.35263  eV     1   --> A'             
     e( 87 - 87) =      7.64532  eV     1   --> A'             
     e( 88 - 88) =      9.42215  eV     1   --> A'             
     e( 89 - 89) =      9.56657  eV     1   --> A'             
     e( 90 - 90) =      9.67153  eV     1   --> A'             
     e( 91 - 91) =     10.05124  eV     1   --> A'             
     e( 92 - 92) =     10.15181  eV     1   --> A'             
     e( 93 - 93) =     10.21868  eV     1   --> A'             
     e( 94 - 94) =     10.66293  eV     1   --> A'             
     e( 95 - 95) =     10.88240  eV     1   --> A'             
     e( 96 - 96) =     11.12247  eV     1   --> A'             
     e( 97 - 97) =     11.48907  eV     1   --> A''            
     e( 98 - 98) =     11.53103  eV     1   --> A''            
     e( 99 - 99) =     11.58814  eV     1   --> A''            
     e(100 -100) =     12.15755  eV     1   --> A'             
     e(101 -101) =     12.34111  eV     1   --> A'             
     e(102 -102) =     12.43349  eV     1   --> A'             
     e(103 -103) =     12.82693  eV     1   --> A'             
     e(104 -104) =     13.04470  eV     1   --> A'             
     e(105 -105) =     13.05727  eV     1   --> A''            
     e(106 -106) =     13.06325  eV     1   --> A''            
     e(107 -107) =     13.10602  eV     1   --> A''            
     e(108 -108) =     13.65083  eV     1   --> A'             
     e(109 -109) =     13.99463  eV     1   --> A'             
     e(110 -110) =     14.03292  eV     1   --> A'             
     e(111 -111) =     14.05093  eV     1   --> A'             
     e(112 -112) =     14.35915  eV     1   --> A'             
     e(113 -113) =     14.63574  eV     1   --> A'             
     e(114 -114) =     14.75479  eV     1   --> A'             
     e(115 -115) =     14.96283  eV     1   --> A'             
     e(116 -116) =     15.23603  eV     1   --> A''            
     e(117 -117) =     15.46900  eV     1   --> A''            
     e(118 -118) =     15.50728  eV     1   --> A''            
     e(119 -119) =     15.56319  eV     1   --> A'             
     e(120 -120) =     15.84789  eV     1   --> A'             

 **************************************************************************

 **************************************************************************

                    xk=(   0.00000,   0.23792,   0.07585  )

     Band symmetry, C_s (m)     point group:

     e(  1 -  3) =    -28.48720  eV     3   -->   3 A'             
     e(  4 -  6) =    -28.48686  eV     3   -->   3 A'             
     e(  7 -  9) =    -28.48659  eV     3   -->   3 A''            
     e( 10 - 12) =    -28.48626  eV     3   -->   3 A''            
     e( 13 - 18) =    -28.43355  eV     6   -->   3 A'             
     e( 13 - 18) =    -28.43355  eV     6   -->   3 A''            
     e( 19 - 21) =    -28.43252  eV     3   -->   3 A'             
     e( 22 - 24) =    -28.43221  eV     3   -->   3 A''            
     e( 25 - 27) =    -28.41324  eV     3   -->   3 A'             
     e( 28 - 30) =    -28.41296  eV     3   -->   3 A'             
     e( 31 - 31) =     -6.80470  eV     1   --> A'             
     e( 32 - 33) =     -6.80457  eV     2   -->   2 A'             
     e( 34 - 34) =     -6.65847  eV     1   --> A'             
     e( 35 - 35) =     -6.65793  eV     1   --> A'             
     e( 36 - 36) =     -6.65713  eV     1   --> A'             
     e( 37 - 37) =     -6.61701  eV     1   --> A''            
     e( 38 - 38) =     -6.61690  eV     1   --> A''            
     e( 39 - 39) =     -6.61679  eV     1   --> A''            
     e( 40 - 40) =     -6.56543  eV     1   --> A'             
     e( 41 - 41) =     -6.56519  eV     1   --> A'             
     e( 42 - 42) =     -6.56442  eV     1   --> A'             
     e( 43 - 45) =     -6.50846  eV     3   -->   3 A''            
     e( 46 - 46) =     -6.48702  eV     1   --> A'             
     e( 47 - 48) =     -6.48690  eV     2   -->   2 A'             
     e( 49 - 51) =     -6.45985  eV     3   -->   3 A''            
     e( 52 - 52) =     -6.37845  eV     1   --> A'             
     e( 53 - 54) =     -6.37796  eV     2   -->   2 A'             
     e( 55 - 55) =     -6.35719  eV     1   --> A''            
     e( 56 - 57) =     -6.35708  eV     2   -->   2 A''            
     e( 58 - 59) =     -6.22870  eV     2   -->   2 A'             
     e( 60 - 60) =     -6.22858  eV     1   --> A'             
     e( 61 - 61) =     -3.57704  eV     1   --> A'             
     e( 62 - 62) =     -3.57355  eV     1   --> A'             
     e( 63 - 63) =     -3.49098  eV     1   --> A'             
     e( 64 - 64) =     -3.32208  eV     1   --> A'             
     e( 65 - 65) =     -3.22272  eV     1   --> A'             
     e( 66 - 66) =     -3.21903  eV     1   --> A'             
     e( 67 - 67) =      2.11971  eV     1   --> A'             
     e( 68 - 68) =      2.12334  eV     1   --> A'             
     e( 69 - 69) =      2.24695  eV     1   --> A'             
     e( 70 - 70) =      3.80923  eV     1   --> A'             
     e( 71 - 71) =      3.85606  eV     1   --> A'             
     e( 72 - 72) =      3.87068  eV     1   --> A'             
     e( 73 - 73) =      4.88596  eV     1   --> A'             
     e( 74 - 74) =      5.00459  eV     1   --> A'             
     e( 75 - 75) =      5.01207  eV     1   --> A'             
     e( 76 - 76) =      5.39319  eV     1   --> A'             
     e( 77 - 77) =      5.98801  eV     1   --> A'             
     e( 78 - 78) =      6.00432  eV     1   --> A'             
     e( 79 - 79) =      6.23226  eV     1   --> A''            
     e( 80 - 80) =      6.25963  eV     1   --> A''            
     e( 81 - 81) =      6.37109  eV     1   --> A''            
     e( 82 - 82) =      6.50864  eV     1   --> A''            
     e( 83 - 83) =      6.63928  eV     1   --> A''            
     e( 84 - 84) =      6.67413  eV     1   --> A''            
     e( 85 - 85) =      7.14571  eV     1   --> A'             
     e( 86 - 86) =      7.33725  eV     1   --> A'             
     e( 87 - 87) =      7.53137  eV     1   --> A'             
     e( 88 - 88) =      9.34220  eV     1   --> A'             
     e( 89 - 89) =      9.57838  eV     1   --> A'             
     e( 90 - 90) =      9.59831  eV     1   --> A'             
     e( 91 - 91) =      9.97792  eV     1   --> A'             
     e( 92 - 92) =     10.08103  eV     1   --> A'             
     e( 93 - 93) =     10.16003  eV     1   --> A'             
     e( 94 - 94) =     10.63526  eV     1   --> A'             
     e( 95 - 95) =     10.84349  eV     1   --> A'             
     e( 96 - 96) =     11.12782  eV     1   --> A'             
     e( 97 - 97) =     11.50961  eV     1   --> A''            
     e( 98 - 98) =     11.55703  eV     1   --> A''            
     e( 99 - 99) =     11.64618  eV     1   --> A''            
     e(100 -100) =     12.30312  eV     1   --> A'             
     e(101 -101) =     12.48875  eV     1   --> A'             
     e(102 -102) =     12.56111  eV     1   --> A'             
     e(103 -103) =     12.82923  eV     1   --> A'             
     e(104 -104) =     13.04985  eV     1   --> A'             
     e(105 -105) =     13.16508  eV     1   --> A''            
     e(106 -106) =     13.17202  eV     1   --> A''            
     e(107 -107) =     13.18867  eV     1   --> A''            
     e(108 -108) =     13.60715  eV     1   --> A'             
     e(109 -109) =     14.00375  eV     1   --> A'             
     e(110 -110) =     14.03341  eV     1   --> A'             
     e(111 -111) =     14.09297  eV     1   --> A'             
     e(112 -112) =     14.33122  eV     1   --> A'             
     e(113 -113) =     14.58631  eV     1   --> A'             
     e(114 -114) =     14.69661  eV     1   --> A'             
     e(115 -115) =     14.90948  eV     1   --> A'             
     e(116 -116) =     15.33708  eV     1   --> A''            
     e(117 -117) =     15.52317  eV     1   --> A''            
     e(118 -118) =     15.58582  eV     1   --> A'             
     e(119 -119) =     15.60238  eV     1   --> A''            
     e(120 -120) =     15.82399  eV     1   --> A'             

 **************************************************************************

 **************************************************************************

                    xk=(   0.00000,   0.25774,   0.07585  )

     Band symmetry, C_s (m)     point group:

     e(  1 -  3) =    -28.48719  eV     3   -->   3 A'             
     e(  4 -  6) =    -28.48685  eV     3   -->   3 A'             
     e(  7 -  9) =    -28.48650  eV     3   -->   3 A''            
     e( 10 - 12) =    -28.48617  eV     3   -->   3 A''            
     e( 13 - 18) =    -28.43356  eV     6   -->   3 A'             
     e( 13 - 18) =    -28.43356  eV     6   -->   3 A''            
     e( 19 - 21) =    -28.43256  eV     3   -->   3 A'             
     e( 22 - 24) =    -28.43221  eV     3   -->   3 A''            
     e( 25 - 27) =    -28.41319  eV     3   -->   3 A'             
     e( 28 - 30) =    -28.41291  eV     3   -->   3 A'             
     e( 31 - 31) =     -6.80360  eV     1   --> A'             
     e( 32 - 33) =     -6.80346  eV     2   -->   2 A'             
     e( 34 - 34) =     -6.66455  eV     1   --> A'             
     e( 35 - 35) =     -6.66391  eV     1   --> A'             
     e( 36 - 36) =     -6.66308  eV     1   --> A'             
     e( 37 - 38) =     -6.61742  eV     2   -->   2 A''            
     e( 39 - 39) =     -6.61720  eV     1   --> A''            
     e( 40 - 40) =     -6.57066  eV     1   --> A'             
     e( 41 - 41) =     -6.57046  eV     1   --> A'             
     e( 42 - 42) =     -6.56956  eV     1   --> A'             
     e( 43 - 45) =     -6.50582  eV     3   -->   3 A''            
     e( 46 - 46) =     -6.48841  eV     1   --> A'             
     e( 47 - 48) =     -6.48828  eV     2   -->   2 A'             
     e( 49 - 51) =     -6.45754  eV     3   -->   3 A''            
     e( 52 - 52) =     -6.38087  eV     1   --> A'             
     e( 53 - 54) =     -6.38037  eV     2   -->   2 A'             
     e( 55 - 55) =     -6.35761  eV     1   --> A''            
     e( 56 - 57) =     -6.35750  eV     2   -->   2 A''            
     e( 58 - 60) =     -6.22583  eV     3   -->   3 A'             
     e( 61 - 61) =     -3.51698  eV     1   --> A'             
     e( 62 - 62) =     -3.51258  eV     1   --> A'             
     e( 63 - 63) =     -3.43283  eV     1   --> A'             
     e( 64 - 64) =     -3.26607  eV     1   --> A'             
     e( 65 - 65) =     -3.17055  eV     1   --> A'             
     e( 66 - 66) =     -3.16588  eV     1   --> A'             
     e( 67 - 67) =      2.12014  eV     1   --> A'             
     e( 68 - 68) =      2.12581  eV     1   --> A'             
     e( 69 - 69) =      2.20918  eV     1   --> A'             
     e( 70 - 70) =      3.67163  eV     1   --> A'             
     e( 71 - 71) =      3.72581  eV     1   --> A'             
     e( 72 - 72) =      3.81678  eV     1   --> A'             
     e( 73 - 73) =      4.74057  eV     1   --> A'             
     e( 74 - 74) =      4.86308  eV     1   --> A'             
     e( 75 - 75) =      4.91317  eV     1   --> A'             
     e( 76 - 76) =      5.29641  eV     1   --> A'             
     e( 77 - 77) =      5.97041  eV     1   --> A'             
     e( 78 - 78) =      5.97623  eV     1   --> A'             
     e( 79 - 79) =      6.16741  eV     1   --> A''            
     e( 80 - 80) =      6.19263  eV     1   --> A''            
     e( 81 - 81) =      6.31153  eV     1   --> A''            
     e( 82 - 82) =      6.44449  eV     1   --> A''            
     e( 83 - 83) =      6.58434  eV     1   --> A''            
     e( 84 - 84) =      6.61669  eV     1   --> A''            
     e( 85 - 85) =      7.09440  eV     1   --> A'             
     e( 86 - 86) =      7.31246  eV     1   --> A'             
     e( 87 - 87) =      7.40961  eV     1   --> A'             
     e( 88 - 88) =      9.26607  eV     1   --> A'             
     e( 89 - 89) =      9.51104  eV     1   --> A'             
     e( 90 - 90) =      9.57530  eV     1   --> A'             
     e( 91 - 91) =      9.90087  eV     1   --> A'             
     e( 92 - 92) =     10.00373  eV     1   --> A'             
     e( 93 - 93) =     10.11128  eV     1   --> A'             
     e( 94 - 94) =     10.59471  eV     1   --> A'             
     e( 95 - 95) =     10.78081  eV     1   --> A'             
     e( 96 - 96) =     11.11643  eV     1   --> A'             
[...]
     e( 49 - 51) =     -6.45787  eV     3   --> E*             
     e( 52 - 54) =     -6.37874  eV     3   --> A              
     e( 52 - 54) =     -6.37874  eV     3   --> E              
     e( 52 - 54) =     -6.37874  eV     3   --> E*             
     e( 55 - 57) =     -6.37852  eV     3   --> A              
     e( 55 - 57) =     -6.37852  eV     3   --> E              
     e( 55 - 57) =     -6.37852  eV     3   --> E*             
     e( 58 - 60) =     -6.19963  eV     3   --> A              
     e( 58 - 60) =     -6.19963  eV     3   --> E              
     e( 58 - 60) =     -6.19963  eV     3   --> E*             
     e( 61 - 63) =     -2.56669  eV     3   --> A              
     e( 61 - 63) =     -2.56669  eV     3   --> E              
     e( 61 - 63) =     -2.56669  eV     3   --> E*             
     e( 64 - 66) =     -2.56637  eV     3   --> A              
     e( 64 - 66) =     -2.56637  eV     3   --> E              
     e( 64 - 66) =     -2.56637  eV     3   --> E*             
     e( 67 - 69) =      1.62949  eV     3   --> A              
     e( 67 - 69) =      1.62949  eV     3   --> E              
     e( 67 - 69) =      1.62949  eV     3   --> E*             
     e( 70 - 72) =      2.53322  eV     3   --> A              
     e( 70 - 72) =      2.53322  eV     3   --> E              
     e( 70 - 72) =      2.53322  eV     3   --> E*             
     e( 73 - 75) =      4.22461  eV     3   --> A              
     e( 73 - 75) =      4.22461  eV     3   --> E              
     e( 73 - 75) =      4.22461  eV     3   --> E*             
     e( 76 - 78) =      4.56996  eV     3   --> A              
     e( 76 - 78) =      4.56996  eV     3   --> E              
     e( 76 - 78) =      4.56996  eV     3   --> E*             
     e( 79 - 81) =      5.44261  eV     3   --> A              
     e( 79 - 81) =      5.44261  eV     3   --> E              
     e( 79 - 81) =      5.44261  eV     3   --> E*             
     e( 82 - 84) =      5.80437  eV     3   --> A              
     e( 82 - 84) =      5.80437  eV     3   --> E              
     e( 82 - 84) =      5.80437  eV     3   --> E*             
     e( 85 - 87) =      6.31921  eV     3   --> A              
     e( 85 - 87) =      6.31921  eV     3   --> E              
     e( 85 - 87) =      6.31921  eV     3   --> E*             
     e( 88 - 90) =      9.57732  eV     3   --> A              
     e( 88 - 90) =      9.57732  eV     3   --> E              
     e( 88 - 90) =      9.57732  eV     3   --> E*             
     e( 91 - 93) =      9.90278  eV     3   --> A              
     e( 91 - 93) =      9.90278  eV     3   --> E              
     e( 91 - 93) =      9.90278  eV     3   --> E*             
     e( 94 - 96) =     10.46125  eV     3   --> A              
     e( 94 - 96) =     10.46125  eV     3   --> E              
     e( 94 - 96) =     10.46125  eV     3   --> E*             
     e( 97 - 99) =     12.58772  eV     3   --> A              
     e( 97 - 99) =     12.58772  eV     3   --> E              
     e( 97 - 99) =     12.58772  eV     3   --> E*             
     e(100 -102) =     12.89414  eV     3   --> A              
     e(100 -102) =     12.89414  eV     3   --> E              
     e(100 -102) =     12.89414  eV     3   --> E*             
     e(103 -105) =     13.42040  eV     3   --> A              
     e(103 -105) =     13.42040  eV     3   --> E              
     e(103 -105) =     13.42040  eV     3   --> E*             
     e(106 -108) =     14.33954  eV     3   --> A              
     e(106 -108) =     14.33954  eV     3   --> E              
     e(106 -108) =     14.33954  eV     3   --> E*             
     e(109 -111) =     14.44875  eV     3   --> A              
     e(109 -111) =     14.44875  eV     3   --> E              
     e(109 -111) =     14.44875  eV     3   --> E*             
     e(112 -114) =     15.11451  eV     3   --> A              
     e(112 -114) =     15.11451  eV     3   --> E              
     e(112 -114) =     15.11451  eV     3   --> E*             
     e(115 -117) =     15.50024  eV     3   --> A              
     e(115 -117) =     15.50024  eV     3   --> E              
     e(115 -117) =     15.50024  eV     3   --> E*             
     e(118 -120) =     15.86905  eV     3   --> A              
     e(118 -120) =     15.86905  eV     3   --> E              
     e(118 -120) =     15.86905  eV     3   --> E*             

 **************************************************************************

 **************************************************************************

                    xk=(   0.30906,   0.53531,   0.01896  )

     Band symmetry, C_3 (3)     point group:

     e(  1 -  6) =    -28.48633  eV     6   -->   2 A              
     e(  1 -  6) =    -28.48633  eV     6   -->   2 E              
     e(  1 -  6) =    -28.48633  eV     6   -->   2 E*             
     e(  7 - 12) =    -28.48602  eV     6   -->   2 A              
     e(  7 - 12) =    -28.48602  eV     6   -->   2 E              
     e(  7 - 12) =    -28.48602  eV     6   -->   2 E*             
     e( 13 - 15) =    -28.43391  eV     3   --> A              
     e( 13 - 15) =    -28.43391  eV     3   --> E              
     e( 13 - 15) =    -28.43391  eV     3   --> E*             
     e( 16 - 18) =    -28.43329  eV     3   --> A              
     e( 16 - 18) =    -28.43329  eV     3   --> E              
     e( 16 - 18) =    -28.43329  eV     3   --> E*             
     e( 19 - 21) =    -28.43302  eV     3   --> A              
     e( 19 - 21) =    -28.43302  eV     3   --> E              
     e( 19 - 21) =    -28.43302  eV     3   --> E*             
     e( 22 - 24) =    -28.43230  eV     3   --> A              
     e( 22 - 24) =    -28.43230  eV     3   --> E              
     e( 22 - 24) =    -28.43230  eV     3   --> E*             
     e( 25 - 27) =    -28.41264  eV     3   --> A              
     e( 25 - 27) =    -28.41264  eV     3   --> E              
     e( 25 - 27) =    -28.41264  eV     3   --> E*             
     e( 28 - 30) =    -28.41238  eV     3   --> A              
     e( 28 - 30) =    -28.41238  eV     3   --> E              
     e( 28 - 30) =    -28.41238  eV     3   --> E*             
     e( 31 - 33) =     -6.78816  eV     3   --> A              
     e( 31 - 33) =     -6.78816  eV     3   --> E              
     e( 31 - 33) =     -6.78816  eV     3   --> E*             
     e( 34 - 36) =     -6.69327  eV     3   --> A              
     e( 34 - 36) =     -6.69327  eV     3   --> E              
     e( 34 - 36) =     -6.69327  eV     3   --> E*             
     e( 37 - 39) =     -6.69309  eV     3   --> A              
     e( 37 - 39) =     -6.69309  eV     3   --> E              
     e( 37 - 39) =     -6.69309  eV     3   --> E*             
     e( 40 - 42) =     -6.54676  eV     3   --> A              
     e( 40 - 42) =     -6.54676  eV     3   --> E              
     e( 40 - 42) =     -6.54676  eV     3   --> E*             
     e( 43 - 45) =     -6.54658  eV     3   --> A              
     e( 43 - 45) =     -6.54658  eV     3   --> E              
     e( 43 - 45) =     -6.54658  eV     3   --> E*             
     e( 46 - 48) =     -6.45804  eV     3   --> A              
     e( 46 - 48) =     -6.45804  eV     3   --> E              
     e( 46 - 48) =     -6.45804  eV     3   --> E*             
     e( 49 - 51) =     -6.45787  eV     3   --> A              
     e( 49 - 51) =     -6.45787  eV     3   --> E              
     e( 49 - 51) =     -6.45787  eV     3   --> E*             
     e( 52 - 54) =     -6.37874  eV     3   --> A              
     e( 52 - 54) =     -6.37874  eV     3   --> E              
     e( 52 - 54) =     -6.37874  eV     3   --> E*             
     e( 55 - 57) =     -6.37852  eV     3   --> A              
     e( 55 - 57) =     -6.37852  eV     3   --> E              
     e( 55 - 57) =     -6.37852  eV     3   --> E*             
     e( 58 - 60) =     -6.19963  eV     3   --> A              
     e( 58 - 60) =     -6.19963  eV     3   --> E              
     e( 58 - 60) =     -6.19963  eV     3   --> E*             
     e( 61 - 63) =     -2.56669  eV     3   --> A              
     e( 61 - 63) =     -2.56669  eV     3   --> E              
     e( 61 - 63) =     -2.56669  eV     3   --> E*             
     e( 64 - 66) =     -2.56637  eV     3   --> A              
     e( 64 - 66) =     -2.56637  eV     3   --> E              
     e( 64 - 66) =     -2.56637  eV     3   --> E*             
     e( 67 - 69) =      1.62949  eV     3   --> A              
     e( 67 - 69) =      1.62949  eV     3   --> E              
     e( 67 - 69) =      1.62949  eV     3   --> E*             
     e( 70 - 72) =      2.53322  eV     3   --> A              
     e( 70 - 72) =      2.53322  eV     3   --> E              
     e( 70 - 72) =      2.53322  eV     3   --> E*             
     e( 73 - 75) =      4.22426  eV     3   --> A              
     e( 73 - 75) =      4.22426  eV     3   --> E              
     e( 73 - 75) =      4.22426  eV     3   --> E*             
     e( 76 - 78) =      4.57094  eV     3   --> A              
     e( 76 - 78) =      4.57094  eV     3   --> E              
     e( 76 - 78) =      4.57094  eV     3   --> E*             
     e( 79 - 81) =      5.43785  eV     3   --> A              
     e( 79 - 81) =      5.43785  eV     3   --> E              
     e( 79 - 81) =      5.43785  eV     3   --> E*             
     e( 82 - 84) =      5.81170  eV     3   --> A              
     e( 82 - 84) =      5.81170  eV     3   --> E              
     e( 82 - 84) =      5.81170  eV     3   --> E*             
     e( 85 - 87) =      6.31554  eV     3   --> A              
     e( 85 - 87) =      6.31554  eV     3   --> E              
     e( 85 - 87) =      6.31554  eV     3   --> E*             
     e( 88 - 90) =      9.63699  eV     3   --> A              
     e( 88 - 90) =      9.63699  eV     3   --> E              
     e( 88 - 90) =      9.63699  eV     3   --> E*             
     e( 91 - 93) =      9.80685  eV     3   --> A              
     e( 91 - 93) =      9.80685  eV     3   --> E              
     e( 91 - 93) =      9.80685  eV     3   --> E*             
     e( 94 - 96) =     10.50777  eV     3   --> A              
     e( 94 - 96) =     10.50777  eV     3   --> E              
     e( 94 - 96) =     10.50777  eV     3   --> E*             
     e( 97 - 99) =     12.53548  eV     3   --> A              
     e( 97 - 99) =     12.53548  eV     3   --> E              
     e( 97 - 99) =     12.53548  eV     3   --> E*             
     e(100 -102) =     12.93194  eV     3   --> A              
     e(100 -102) =     12.93194  eV     3   --> E              
     e(100 -102) =     12.93194  eV     3   --> E*             
     e(103 -105) =     13.42419  eV     3   --> A              
     e(103 -105) =     13.42419  eV     3   --> E              
     e(103 -105) =     13.42419  eV     3   --> E*             
     e(106 -108) =     14.37225  eV     3   --> A              
     e(106 -108) =     14.37225  eV     3   --> E              
     e(106 -108) =     14.37225  eV     3   --> E*             
     e(109 -111) =     14.43321  eV     3   --> A              
     e(109 -111) =     14.43321  eV     3   --> E              
     e(109 -111) =     14.43321  eV     3   --> E*             
     e(112 -114) =     15.13124  eV     3   --> A              
     e(112 -114) =     15.13124  eV     3   --> E              
     e(112 -114) =     15.13124  eV     3   --> E*             
     e(115 -117) =     15.46098  eV     3   --> A              
     e(115 -117) =     15.46098  eV     3   --> E              
     e(115 -117) =     15.46098  eV     3   --> E*             
     e(118 -120) =     15.88881  eV     3   --> A              
     e(118 -120) =     15.88881  eV     3   --> E              
     e(118 -120) =     15.88881  eV     3   --> E*             

 **************************************************************************

 **************************************************************************

                    xk=(   0.30906,   0.53531,  -0.00000  )

     Band symmetry, C_3 (3)     point group:

     e(  1 -  6) =    -28.48633  eV     6   -->   2 A              
     e(  1 -  6) =    -28.48633  eV     6   -->   2 E              
     e(  1 -  6) =    -28.48633  eV     6   -->   2 E*             
     e(  7 - 12) =    -28.48602  eV     6   -->   2 A              
     e(  7 - 12) =    -28.48602  eV     6   -->   2 E              
     e(  7 - 12) =    -28.48602  eV     6   -->   2 E*             
     e( 13 - 15) =    -28.43391  eV     3   --> A              
     e( 13 - 15) =    -28.43391  eV     3   --> E              
     e( 13 - 15) =    -28.43391  eV     3   --> E*             
     e( 16 - 18) =    -28.43329  eV     3   --> A              
     e( 16 - 18) =    -28.43329  eV     3   --> E              
     e( 16 - 18) =    -28.43329  eV     3   --> E*             
     e( 19 - 21) =    -28.43302  eV     3   --> A              
     e( 19 - 21) =    -28.43302  eV     3   --> E              
     e( 19 - 21) =    -28.43302  eV     3   --> E*             
     e( 22 - 24) =    -28.43230  eV     3   --> A              
     e( 22 - 24) =    -28.43230  eV     3   --> E              
     e( 22 - 24) =    -28.43230  eV     3   --> E*             
     e( 25 - 27) =    -28.41264  eV     3   --> A              
     e( 25 - 27) =    -28.41264  eV     3   --> E              
     e( 25 - 27) =    -28.41264  eV     3   --> E*             
     e( 28 - 30) =    -28.41238  eV     3   --> A              
     e( 28 - 30) =    -28.41238  eV     3   --> E              
     e( 28 - 30) =    -28.41238  eV     3   --> E*             
     e( 31 - 33) =     -6.78816  eV     3   --> A              
     e( 31 - 33) =     -6.78816  eV     3   --> E              
     e( 31 - 33) =     -6.78816  eV     3   --> E*             
     e( 34 - 36) =     -6.69327  eV     3   --> A              
     e( 34 - 36) =     -6.69327  eV     3   --> E              
     e( 34 - 36) =     -6.69327  eV     3   --> E*             
     e( 37 - 39) =     -6.69309  eV     3   --> A              
     e( 37 - 39) =     -6.69309  eV     3   --> E              
     e( 37 - 39) =     -6.69309  eV     3   --> E*             
     e( 40 - 42) =     -6.54676  eV     3   --> A              
     e( 40 - 42) =     -6.54676  eV     3   --> E              
     e( 40 - 42) =     -6.54676  eV     3   --> E*             
     e( 43 - 45) =     -6.54658  eV     3   --> A              
     e( 43 - 45) =     -6.54658  eV     3   --> E              
     e( 43 - 45) =     -6.54658  eV     3   --> E*             
     e( 46 - 48) =     -6.45804  eV     3   --> A              
     e( 46 - 48) =     -6.45804  eV     3   --> E              
     e( 46 - 48) =     -6.45804  eV     3   --> E*             
     e( 49 - 51) =     -6.45787  eV     3   --> A              
     e( 49 - 51) =     -6.45787  eV     3   --> E              
     e( 49 - 51) =     -6.45787  eV     3   --> E*             
     e( 52 - 54) =     -6.37874  eV     3   --> A              
     e( 52 - 54) =     -6.37874  eV     3   --> E              
     e( 52 - 54) =     -6.37874  eV     3   --> E*             
     e( 55 - 57) =     -6.37852  eV     3   --> A              
     e( 55 - 57) =     -6.37852  eV     3   --> E              
     e( 55 - 57) =     -6.37852  eV     3   --> E*             
     e( 58 - 60) =     -6.19963  eV     3   --> A              
     e( 58 - 60) =     -6.19963  eV     3   --> E              
     e( 58 - 60) =     -6.19963  eV     3   --> E*             
     e( 61 - 63) =     -2.56669  eV     3   --> A              
     e( 61 - 63) =     -2.56669  eV     3   --> E              
     e( 61 - 63) =     -2.56669  eV     3   --> E*             
     e( 64 - 66) =     -2.56637  eV     3   --> A              
     e( 64 - 66) =     -2.56637  eV     3   --> E              
     e( 64 - 66) =     -2.56637  eV     3   --> E*             
     e( 67 - 69) =      1.62949  eV     3   --> A              
     e( 67 - 69) =      1.62949  eV     3   --> E              
     e( 67 - 69) =      1.62949  eV     3   --> E*             
     e( 70 - 72) =      2.53322  eV     3   --> A              
     e( 70 - 72) =      2.53322  eV     3   --> E              
     e( 70 - 72) =      2.53322  eV     3   --> E*             
     e( 73 - 75) =      4.22411  eV     3   --> A              
     e( 73 - 75) =      4.22411  eV     3   --> E              
     e( 73 - 75) =      4.22411  eV     3   --> E*             
     e( 76 - 78) =      4.57135  eV     3   --> A              
     e( 76 - 78) =      4.57135  eV     3   --> E              
     e( 76 - 78) =      4.57135  eV     3   --> E*             
     e( 79 - 81) =      5.43592  eV     3   --> A              
     e( 79 - 81) =      5.43592  eV     3   --> E              
     e( 79 - 81) =      5.43592  eV     3   --> E*             
     e( 82 - 84) =      5.81472  eV     3   --> A              
     e( 82 - 84) =      5.81472  eV     3   --> E              
     e( 82 - 84) =      5.81472  eV     3   --> E*             
     e( 85 - 87) =      6.31400  eV     3   --> A              
     e( 85 - 87) =      6.31400  eV     3   --> E              
     e( 85 - 87) =      6.31400  eV     3   --> E*             
     e( 88 - 88) =      9.71312  eV     1   --> E*             
     e( 89 - 90) =      9.71326  eV     2   --> A              
     e( 89 - 90) =      9.71326  eV     2   --> E              
     e( 91 - 92) =      9.71747  eV     2   --> A              
     e( 91 - 92) =      9.71747  eV     2   -->   ?
     e( 93 - 93) =      9.71762  eV     1   -->   ?
     e( 94 - 96) =     10.52522  eV     3   --> A              
     e( 94 - 96) =     10.52522  eV     3   --> E              
     e( 94 - 96) =     10.52522  eV     3   --> E*             
     e( 97 - 99) =     12.51653  eV     3   --> A              
     e( 97 - 99) =     12.51653  eV     3   --> E              
     e( 97 - 99) =     12.51653  eV     3   --> E*             
     e(100 -102) =     12.94478  eV     3   --> A              
     e(100 -102) =     12.94478  eV     3   --> E              
     e(100 -102) =     12.94478  eV     3   --> E*             
     e(103 -105) =     13.42577  eV     3   --> A              
     e(103 -105) =     13.42577  eV     3   --> E              
     e(103 -105) =     13.42577  eV     3   --> E*             
     e(106 -108) =     14.39644  eV     3   --> A              
     e(106 -108) =     14.39644  eV     3   --> E              
     e(106 -108) =     14.39644  eV     3   --> E*             
     e(109 -111) =     14.41638  eV     3   --> A              
     e(109 -111) =     14.41638  eV     3   --> E              
     e(109 -111) =     14.41638  eV     3   --> E*             
     e(112 -114) =     15.13982  eV     3   --> A              
     e(112 -114) =     15.13982  eV     3   --> E              
     e(112 -114) =     15.13982  eV     3   --> E*             
     e(115 -117) =     15.44253  eV     3   --> A              
     e(115 -117) =     15.44253  eV     3   --> E              
     e(115 -117) =     15.44253  eV     3   --> E*             
     e(118 -120) =     15.90058  eV     3   --> A              
     e(118 -120) =     15.90058  eV     3   --> E              
     e(118 -120) =     15.90058  eV     3   --> E*             

 **************************************************************************
 
     BANDS        :  5m16.74s CPU     5m33.92s WALL

 
   This run was terminated on:  11: 6:46   4Oct2021            

=------------------------------------------------------------------------------=
   JOB DONE.
=------------------------------------------------------------------------------=
